<?xml version="1.0" encoding="UTF-8"?>

<!-- generated on 2024-10-09 21:05:29 by Eclipse SUMO GUI Version v1_20_0+2013-dea7f8276dd
<sumoConfiguration xmlns:xsi="http://www.w3.org/2001/XMLSchema-instance" xsi:noNamespaceSchemaLocation="http://sumo.dlr.de/xsd/sumoConfiguration.xsd">

    <input>
        <net-file value="parking_on_off_road.net.xml"/>
        <additional-files value="parking_on_off_road.add.xml"/>
    </input>

    <output>
        <tripinfo-output value="tripinfo-xml"/>
    </output>

    <traci_server>
        <remote-port value="44855"/>
    </traci_server>

</sumoConfiguration>
-->

<tripinfos xmlns:xsi="http://www.w3.org/2001/XMLSchema-instance" xsi:noNamespaceSchemaLocation="http://sumo.dlr.de/xsd/tripinfo_file.xsd">
    <tripinfo id="vehicle_1" depart="0.00" departLane="-E5_0" departPos="0.00" departSpeed="0.10" departDelay="0.00" arrival="142.00" arrivalLane="E86_0" arrivalPos="183.31" arrivalSpeed="8.75" duration="142.00" routeLength="778.09" waitingTime="1.00" waitingCount="1" stopTime="40.00" timeLoss="21.74" rerouteNo="5" devices="tripinfo_vehicle_1" vType="DEFAULT_VEHTYPE@vehicle_1" speedFactor="0.94" vaporized=""/>
    <tripinfo id="vehicle_6" depart="5.00" departLane="E82_0" departPos="0.00" departSpeed="0.10" departDelay="0.00" arrival="166.00" arrivalLane="E86_0" arrivalPos="183.31" arrivalSpeed="9.73" duration="161.00" routeLength="1000.64" waitingTime="0.00" waitingCount="0" stopTime="40.00" timeLoss="18.64" rerouteNo="2" devices="tripinfo_vehicle_6" vType="DEFAULT_VEHTYPE@vehicle_6" speedFactor="1.05" vaporized=""/>
    <tripinfo id="vehicle_24" depart="26.00" departLane="-E55_0" departPos="0.00" departSpeed="0.10" departDelay="3.00" arrival="167.00" arrivalLane="-E40_0" arrivalPos="89.06" arrivalSpeed="9.58" duration="141.00" routeLength="1185.97" waitingTime="0.00" waitingCount="0" stopTime="0.00" timeLoss="17.31" rerouteNo="3" devices="tripinfo_vehicle_24" vType="DEFAULT_VEHTYPE@vehicle_24" speedFactor="0.83" vaporized=""/>
    <tripinfo id="vehicle_15" depart="14.00" departLane="E46_0" departPos="0.00" departSpeed="0.10" departDelay="0.00" arrival="173.00" arrivalLane="E86_0" arrivalPos="183.31" arrivalSpeed="9.83" duration="159.00" routeLength="942.55" waitingTime="0.00" waitingCount="0" stopTime="40.00" timeLoss="20.23" rerouteNo="4" devices="tripinfo_vehicle_15" vType="DEFAULT_VEHTYPE@vehicle_15" speedFactor="0.93" vaporized=""/>
    <tripinfo id="vehicle_0" depart="0.00" departLane="-E62_0" departPos="0.00" departSpeed="14.72" departDelay="0.00" arrival="175.00" arrivalLane="E86_0" arrivalPos="183.31" arrivalSpeed="13.10" duration="175.00" routeLength="1293.40" waitingTime="3.00" waitingCount="1" stopTime="40.00" timeLoss="43.41" rerouteNo="2" devices="tripinfo_vehicle_0" vType="DEFAULT_VEHTYPE" speedFactor="1.06" vaporized=""/>
    <tripinfo id="vehicle_5" depart="4.00" departLane="E42_0" departPos="0.00" departSpeed="0.10" departDelay="0.00" arrival="180.00" arrivalLane="E86_0" arrivalPos="183.31" arrivalSpeed="9.18" duration="176.00" routeLength="1071.64" waitingTime="1.00" waitingCount="1" stopTime="40.00" timeLoss="23.48" rerouteNo="3" devices="tripinfo_vehicle_5" vType="DEFAULT_VEHTYPE@vehicle_5" speedFactor="0.83" vaporized=""/>
    <tripinfo id="vehicle_25" depart="24.00" departLane="-E84_0" departPos="0.00" departSpeed="0.10" departDelay="0.00" arrival="187.00" arrivalLane="-E40_0" arrivalPos="89.06" arrivalSpeed="8.93" duration="163.00" routeLength="1245.21" waitingTime="1.00" waitingCount="1" stopTime="0.00" timeLoss="31.89" rerouteNo="4" devices="tripinfo_vehicle_25" vType="DEFAULT_VEHTYPE@vehicle_25" speedFactor="0.87" vaporized=""/>
    <tripinfo id="vehicle_13" depart="12.00" departLane="E21_0" departPos="0.00" departSpeed="0.10" departDelay="0.00" arrival="195.00" arrivalLane="E86_0" arrivalPos="183.31" arrivalSpeed="9.92" duration="183.00" routeLength="1193.25" waitingTime="1.00" waitingCount="1" stopTime="40.00" timeLoss="20.96" rerouteNo="3" devices="tripinfo_vehicle_13" vType="DEFAULT_VEHTYPE@vehicle_13" speedFactor="1.12" vaporized=""/>
    <tripinfo id="vehicle_16" depart="15.00" departLane="E67_0" departPos="0.00" departSpeed="0.10" departDelay="0.00" arrival="199.00" arrivalLane="E86_0" arrivalPos="183.31" arrivalSpeed="9.53" duration="184.00" routeLength="1044.15" waitingTime="5.00" waitingCount="2" stopTime="40.00" timeLoss="34.90" rerouteNo="4" devices="tripinfo_vehicle_16" vType="DEFAULT_VEHTYPE@vehicle_16" speedFactor="0.88" vaporized=""/>
    <tripinfo id="vehicle_41" depart="40.00" departLane="E79_0" departPos="0.00" departSpeed="0.10" departDelay="0.00" arrival="211.00" arrivalLane="E86_0" arrivalPos="183.31" arrivalSpeed="9.92" duration="171.00" routeLength="1074.11" waitingTime="0.00" waitingCount="0" stopTime="40.00" timeLoss="19.25" rerouteNo="3" devices="tripinfo_vehicle_41" vType="DEFAULT_VEHTYPE@vehicle_41" speedFactor="0.96" vaporized=""/>
    <tripinfo id="vehicle_3" depart="2.00" departLane="-E54_0" departPos="0.00" departSpeed="0.10" departDelay="0.00" arrival="218.00" arrivalLane="E86_0" arrivalPos="183.31" arrivalSpeed="9.82" duration="216.00" routeLength="1486.17" waitingTime="5.00" waitingCount="1" stopTime="45.00" timeLoss="20.82" rerouteNo="3" devices="tripinfo_vehicle_3" vType="DEFAULT_VEHTYPE@vehicle_3" speedFactor="1.08" vaporized=""/>
    <tripinfo id="vehicle_27" depart="26.00" departLane="-E74_0" departPos="0.00" departSpeed="0.10" departDelay="0.00" arrival="222.00" arrivalLane="E86_0" arrivalPos="183.31" arrivalSpeed="9.46" duration="196.00" routeLength="1268.49" waitingTime="1.00" waitingCount="1" stopTime="40.00" timeLoss="24.81" rerouteNo="7" devices="tripinfo_vehicle_27" vType="DEFAULT_VEHTYPE@vehicle_27" speedFactor="0.95" vaporized=""/>
    <tripinfo id="vehicle_12" depart="11.00" departLane="-E74_0" departPos="0.00" departSpeed="0.10" departDelay="0.00" arrival="230.00" arrivalLane="E86_0" arrivalPos="183.31" arrivalSpeed="9.68" duration="219.00" routeLength="1509.80" waitingTime="0.00" waitingCount="0" stopTime="40.00" timeLoss="24.50" rerouteNo="8" devices="tripinfo_vehicle_12" vType="DEFAULT_VEHTYPE@vehicle_12" speedFactor="1.05" vaporized=""/>
    <tripinfo id="vehicle_23" depart="22.00" departLane="E60_0" departPos="0.00" departSpeed="0.10" departDelay="0.00" arrival="233.00" arrivalLane="E86_0" arrivalPos="183.31" arrivalSpeed="9.79" duration="211.00" routeLength="1391.01" waitingTime="0.00" waitingCount="0" stopTime="40.00" timeLoss="26.77" rerouteNo="2" devices="tripinfo_vehicle_23" vType="DEFAULT_VEHTYPE@vehicle_23" speedFactor="0.89" vaporized=""/>
    <tripinfo id="vehicle_8" depart="7.00" departLane="-E60_0" departPos="0.00" departSpeed="0.10" departDelay="0.00" arrival="235.00" arrivalLane="E86_0" arrivalPos="183.31" arrivalSpeed="9.81" duration="228.00" routeLength="1560.28" waitingTime="1.00" waitingCount="1" stopTime="40.00" timeLoss="28.94" rerouteNo="4" devices="tripinfo_vehicle_8" vType="DEFAULT_VEHTYPE@vehicle_8" speedFactor="0.94" vaporized=""/>
    <tripinfo id="vehicle_19" depart="18.00" departLane="E60_0" departPos="0.00" departSpeed="0.10" departDelay="0.00" arrival="239.00" arrivalLane="E86_0" arrivalPos="183.31" arrivalSpeed="8.91" duration="221.00" routeLength="1356.22" waitingTime="16.00" waitingCount="1" stopTime="40.00" timeLoss="43.24" rerouteNo="8" devices="tripinfo_vehicle_19" vType="DEFAULT_VEHTYPE@vehicle_19" speedFactor="1.16" vaporized=""/>
    <tripinfo id="vehicle_10" depart="9.00" departLane="-E65_0" departPos="0.00" departSpeed="0.10" departDelay="0.00" arrival="241.00" arrivalLane="E86_0" arrivalPos="183.31" arrivalSpeed="9.67" duration="232.00" routeLength="1553.81" waitingTime="1.00" waitingCount="1" stopTime="40.00" timeLoss="33.12" rerouteNo="7" devices="tripinfo_vehicle_10" vType="DEFAULT_VEHTYPE@vehicle_10" speedFactor="1.09" vaporized=""/>
    <tripinfo id="vehicle_18" depart="17.00" departLane="E66_0" departPos="0.00" departSpeed="0.10" departDelay="0.00" arrival="244.00" arrivalLane="E86_0" arrivalPos="183.31" arrivalSpeed="8.87" duration="227.00" routeLength="1382.67" waitingTime="4.00" waitingCount="2" stopTime="40.00" timeLoss="42.49" rerouteNo="4" devices="tripinfo_vehicle_18" vType="DEFAULT_VEHTYPE@vehicle_18" speedFactor="0.94" vaporized=""/>
    <tripinfo id="vehicle_29" depart="28.00" departLane="-E71_0" departPos="0.00" departSpeed="0.10" departDelay="0.00" arrival="248.00" arrivalLane="E86_0" arrivalPos="183.31" arrivalSpeed="9.27" duration="220.00" routeLength="1471.07" waitingTime="1.00" waitingCount="1" stopTime="40.00" timeLoss="27.48" rerouteNo="3" devices="tripinfo_vehicle_29" vType="DEFAULT_VEHTYPE@vehicle_29" speedFactor="0.93" vaporized=""/>
    <tripinfo id="vehicle_35" depart="34.00" departLane="E44_0" departPos="0.00" departSpeed="0.10" departDelay="0.00" arrival="251.00" arrivalLane="E86_0" arrivalPos="183.31" arrivalSpeed="8.80" duration="217.00" routeLength="1340.68" waitingTime="7.00" waitingCount="2" stopTime="40.00" timeLoss="39.10" rerouteNo="4" devices="tripinfo_vehicle_35" vType="DEFAULT_VEHTYPE@vehicle_35" speedFactor="1.02" vaporized=""/>
    <tripinfo id="vehicle_43" depart="42.00" departLane="-E55_0" departPos="0.00" departSpeed="0.10" departDelay="0.00" arrival="253.00" arrivalLane="E86_0" arrivalPos="183.31" arrivalSpeed="9.86" duration="211.00" routeLength="1461.91" waitingTime="0.00" waitingCount="0" stopTime="40.00" timeLoss="23.20" rerouteNo="2" devices="tripinfo_vehicle_43" vType="DEFAULT_VEHTYPE@vehicle_43" speedFactor="1.04" vaporized=""/>
    <tripinfo id="vehicle_45" depart="47.00" departLane="-E84_0" departPos="0.00" departSpeed="0.10" departDelay="3.00" arrival="256.00" arrivalLane="E86_0" arrivalPos="183.31" arrivalSpeed="9.48" duration="209.00" routeLength="1402.49" waitingTime="1.00" waitingCount="1" stopTime="41.00" timeLoss="25.04" rerouteNo="4" devices="tripinfo_vehicle_45" vType="DEFAULT_VEHTYPE@vehicle_45" speedFactor="1.09" vaporized=""/>
    <tripinfo id="vehicle_2" depart="1.00" departLane="-E29_0" departPos="0.00" departSpeed="0.10" departDelay="0.00" arrival="258.00" arrivalLane="E86_0" arrivalPos="183.31" arrivalSpeed="8.75" duration="257.00" routeLength="1826.90" waitingTime="2.00" waitingCount="1" stopTime="40.00" timeLoss="32.77" rerouteNo="2" devices="tripinfo_vehicle_2" vType="DEFAULT_VEHTYPE@vehicle_2" speedFactor="1.01" vaporized=""/>
    <tripinfo id="vehicle_11" depart="10.00" departLane="-E41_0" departPos="0.00" departSpeed="0.10" departDelay="0.00" arrival="260.00" arrivalLane="E86_0" arrivalPos="183.31" arrivalSpeed="9.01" duration="250.00" routeLength="1771.84" waitingTime="0.00" waitingCount="0" stopTime="40.00" timeLoss="30.11" rerouteNo="3" devices="tripinfo_vehicle_11" vType="DEFAULT_VEHTYPE@vehicle_11" speedFactor="1.03" vaporized=""/>
    <tripinfo id="vehicle_17" depart="16.00" departLane="-E16_0" departPos="0.00" departSpeed="0.10" departDelay="0.00" arrival="263.00" arrivalLane="E86_0" arrivalPos="183.31" arrivalSpeed="9.96" duration="247.00" routeLength="1941.92" waitingTime="10.00" waitingCount="2" stopTime="0.00" timeLoss="48.01" rerouteNo="9" devices="tripinfo_vehicle_17" vType="DEFAULT_VEHTYPE@vehicle_17" speedFactor="0.94" vaporized=""/>
    <tripinfo id="vehicle_33" depart="32.00" departLane="E74_0" departPos="0.00" departSpeed="0.10" departDelay="0.00" arrival="265.00" arrivalLane="E86_0" arrivalPos="183.31" arrivalSpeed="9.44" duration="233.00" routeLength="1534.82" waitingTime="7.00" waitingCount="1" stopTime="40.00" timeLoss="37.86" rerouteNo="4" devices="tripinfo_vehicle_33" vType="DEFAULT_VEHTYPE@vehicle_33" speedFactor="1.17" vaporized=""/>
    <tripinfo id="vehicle_7" depart="6.00" departLane="E52_0" departPos="0.00" departSpeed="0.10" departDelay="0.00" arrival="268.00" arrivalLane="E86_0" arrivalPos="183.31" arrivalSpeed="9.49" duration="262.00" routeLength="1535.68" waitingTime="24.00" waitingCount="3" stopTime="40.00" timeLoss="62.35" rerouteNo="3" devices="tripinfo_vehicle_7" vType="DEFAULT_VEHTYPE@vehicle_7" speedFactor="0.89" vaporized=""/>
    <tripinfo id="vehicle_42" depart="41.00" departLane="E66_0" departPos="0.00" departSpeed="0.10" departDelay="0.00" arrival="270.00" arrivalLane="E86_0" arrivalPos="183.31" arrivalSpeed="9.73" duration="229.00" routeLength="1442.63" waitingTime="4.00" waitingCount="1" stopTime="40.00" timeLoss="42.81" rerouteNo="3" devices="tripinfo_vehicle_42" vType="DEFAULT_VEHTYPE@vehicle_42" speedFactor="1.09" vaporized=""/>
    <tripinfo id="vehicle_36" depart="35.00" departLane="E65_0" departPos="0.00" departSpeed="0.10" departDelay="0.00" arrival="272.00" arrivalLane="E86_0" arrivalPos="183.31" arrivalSpeed="9.46" duration="237.00" routeLength="1672.59" waitingTime="16.00" waitingCount="5" stopTime="0.00" timeLoss="65.00" rerouteNo="7" devices="tripinfo_vehicle_36" vType="DEFAULT_VEHTYPE@vehicle_36" speedFactor="0.97" vaporized=""/>
    <tripinfo id="vehicle_30" depart="29.00" departLane="-E43_0" departPos="0.00" departSpeed="0.10" departDelay="0.00" arrival="275.00" arrivalLane="E86_0" arrivalPos="183.31" arrivalSpeed="9.16" duration="246.00" routeLength="1457.79" waitingTime="12.00" waitingCount="3" stopTime="40.00" timeLoss="57.85" rerouteNo="5" devices="tripinfo_vehicle_30" vType="DEFAULT_VEHTYPE@vehicle_30" speedFactor="1.18" vaporized=""/>
    <tripinfo id="vehicle_31" depart="30.00" departLane="-E65_0" departPos="0.00" departSpeed="0.10" departDelay="0.00" arrival="277.00" arrivalLane="E86_0" arrivalPos="183.31" arrivalSpeed="9.22" duration="247.00" routeLength="1343.68" waitingTime="32.00" waitingCount="3" stopTime="40.00" timeLoss="70.66" rerouteNo="5" devices="tripinfo_vehicle_31" vType="DEFAULT_VEHTYPE@vehicle_31" speedFactor="1.15" vaporized=""/>
    <tripinfo id="vehicle_28" depart="27.00" departLane="E34_0" departPos="0.00" departSpeed="0.10" departDelay="0.00" arrival="279.00" arrivalLane="E86_0" arrivalPos="183.31" arrivalSpeed="9.58" duration="252.00" routeLength="1657.90" waitingTime="5.00" waitingCount="1" stopTime="44.00" timeLoss="38.68" rerouteNo="11" devices="tripinfo_vehicle_28" vType="DEFAULT_VEHTYPE@vehicle_28" speedFactor="1.13" vaporized=""/>
    <tripinfo id="vehicle_44" depart="43.00" departLane="-E40_0" departPos="0.00" departSpeed="0.10" departDelay="0.00" arrival="282.00" arrivalLane="E86_0" arrivalPos="183.31" arrivalSpeed="9.18" duration="239.00" routeLength="1591.84" waitingTime="3.00" waitingCount="1" stopTime="40.00" timeLoss="37.54" rerouteNo="2" devices="tripinfo_vehicle_44" vType="DEFAULT_VEHTYPE@vehicle_44" speedFactor="1.04" vaporized=""/>
    <tripinfo id="vehicle_37" depart="36.00" departLane="E63_0" departPos="0.00" departSpeed="0.10" departDelay="0.00" arrival="284.00" arrivalLane="E86_0" arrivalPos="183.31" arrivalSpeed="9.56" duration="248.00" routeLength="1759.03" waitingTime="1.00" waitingCount="1" stopTime="40.00" timeLoss="30.81" rerouteNo="4" devices="tripinfo_vehicle_37" vType="DEFAULT_VEHTYPE@vehicle_37" speedFactor="1.18" vaporized=""/>
    <tripinfo id="vehicle_49" depart="48.00" departLane="-E44_0" departPos="0.00" departSpeed="0.10" departDelay="0.00" arrival="286.00" arrivalLane="-E40_0" arrivalPos="89.06" arrivalSpeed="9.85" duration="238.00" routeLength="1775.57" waitingTime="14.00" waitingCount="2" stopTime="0.00" timeLoss="53.47" rerouteNo="13" devices="tripinfo_vehicle_49" vType="DEFAULT_VEHTYPE@vehicle_49" speedFactor="0.85" vaporized=""/>
    <tripinfo id="vehicle_21" depart="20.00" departLane="-E84_0" departPos="0.00" departSpeed="0.10" departDelay="0.00" arrival="288.00" arrivalLane="E86_0" arrivalPos="183.31" arrivalSpeed="9.89" duration="268.00" routeLength="1776.44" waitingTime="2.00" waitingCount="1" stopTime="40.00" timeLoss="44.90" rerouteNo="7" devices="tripinfo_vehicle_21" vType="DEFAULT_VEHTYPE@vehicle_21" speedFactor="1.01" vaporized=""/>
    <tripinfo id="vehicle_32" depart="31.00" departLane="-E74_0" departPos="0.00" departSpeed="0.10" departDelay="0.00" arrival="291.00" arrivalLane="E86_0" arrivalPos="183.31" arrivalSpeed="9.64" duration="260.00" routeLength="1736.10" waitingTime="2.00" waitingCount="1" stopTime="40.00" timeLoss="40.01" rerouteNo="12" devices="tripinfo_vehicle_32" vType="DEFAULT_VEHTYPE@vehicle_32" speedFactor="1.01" vaporized=""/>
    <tripinfo id="vehicle_9" depart="8.00" departLane="E74_0" departPos="0.00" departSpeed="0.10" departDelay="0.00" arrival="297.00" arrivalLane="E86_0" arrivalPos="183.31" arrivalSpeed="9.29" duration="289.00" routeLength="2067.94" waitingTime="0.00" waitingCount="0" stopTime="40.00" timeLoss="36.47" rerouteNo="3" devices="tripinfo_vehicle_9" vType="DEFAULT_VEHTYPE@vehicle_9" speedFactor="0.86" vaporized=""/>
    <tripinfo id="vehicle_14" depart="13.00" departLane="-E56_0" departPos="0.00" departSpeed="0.10" departDelay="0.00" arrival="300.00" arrivalLane="E86_0" arrivalPos="183.31" arrivalSpeed="8.93" duration="287.00" routeLength="1980.88" waitingTime="12.00" waitingCount="2" stopTime="40.00" timeLoss="43.74" rerouteNo="6" devices="tripinfo_vehicle_14" vType="DEFAULT_VEHTYPE@vehicle_14" speedFactor="0.99" vaporized=""/>
    <tripinfo id="vehicle_26" depart="25.00" departLane="-E72_0" departPos="0.00" departSpeed="0.10" departDelay="0.00" arrival="308.00" arrivalLane="E86_0" arrivalPos="183.31" arrivalSpeed="9.90" duration="283.00" routeLength="1941.55" waitingTime="6.00" waitingCount="2" stopTime="40.00" timeLoss="43.01" rerouteNo="4" devices="tripinfo_vehicle_26" vType="DEFAULT_VEHTYPE@vehicle_26" speedFactor="0.92" vaporized=""/>
    <tripinfo id="vehicle_47" depart="46.00" departLane="-E56_0" departPos="0.00" departSpeed="0.10" departDelay="0.00" arrival="320.00" arrivalLane="E86_0" arrivalPos="183.31" arrivalSpeed="8.98" duration="274.00" routeLength="2029.23" waitingTime="0.00" waitingCount="0" stopTime="40.00" timeLoss="26.67" rerouteNo="11" devices="tripinfo_vehicle_47" vType="DEFAULT_VEHTYPE@vehicle_47" speedFactor="0.90" vaporized=""/>
    <tripinfo id="vehicle_40" depart="45.00" departLane="-E54_0" departPos="0.00" departSpeed="0.10" departDelay="6.00" arrival="331.00" arrivalLane="E86_0" arrivalPos="183.31" arrivalSpeed="8.75" duration="286.00" routeLength="2070.22" waitingTime="4.00" waitingCount="1" stopTime="44.00" timeLoss="30.57" rerouteNo="6" devices="tripinfo_vehicle_40" vType="DEFAULT_VEHTYPE@vehicle_40" speedFactor="1.03" vaporized=""/>
    <tripinfo id="vehicle_34" depart="33.00" departLane="E57_0" departPos="0.00" departSpeed="0.10" departDelay="0.00" arrival="353.00" arrivalLane="E86_0" arrivalPos="183.31" arrivalSpeed="9.47" duration="320.00" routeLength="2375.78" waitingTime="0.00" waitingCount="0" stopTime="40.00" timeLoss="35.77" rerouteNo="4" devices="tripinfo_vehicle_34" vType="DEFAULT_VEHTYPE@vehicle_34" speedFactor="0.99" vaporized=""/>
    <tripinfo id="vehicle_39" depart="38.00" departLane="-E14_0" departPos="0.00" departSpeed="0.10" departDelay="0.00" arrival="356.00" arrivalLane="E86_0" arrivalPos="183.31" arrivalSpeed="9.15" duration="318.00" routeLength="2164.36" waitingTime="11.00" waitingCount="2" stopTime="40.00" timeLoss="55.81" rerouteNo="4" devices="tripinfo_vehicle_39" vType="DEFAULT_VEHTYPE@vehicle_39" speedFactor="0.90" vaporized=""/>
    <tripinfo id="vehicle_46" depart="45.00" departLane="-E29_0" departPos="0.00" departSpeed="0.10" departDelay="0.00" arrival="358.00" arrivalLane="E86_0" arrivalPos="183.31" arrivalSpeed="9.37" duration="313.00" routeLength="1782.49" waitingTime="36.00" waitingCount="4" stopTime="40.00" timeLoss="89.50" rerouteNo="13" devices="tripinfo_vehicle_46" vType="DEFAULT_VEHTYPE@vehicle_46" speedFactor="1.00" vaporized=""/>
    <tripinfo id="vehicle_20" depart="19.00" departLane="E62_0" departPos="0.00" departSpeed="0.10" departDelay="0.00" arrival="364.00" arrivalLane="E86_0" arrivalPos="183.31" arrivalSpeed="9.23" duration="345.00" routeLength="2299.37" waitingTime="32.00" waitingCount="1" stopTime="40.00" timeLoss="70.33" rerouteNo="4" devices="tripinfo_vehicle_20" vType="DEFAULT_VEHTYPE@vehicle_20" speedFactor="1.02" vaporized=""/>
    <tripinfo id="vehicle_48" depart="47.00" departLane="E70_0" departPos="0.00" departSpeed="0.10" departDelay="0.00" arrival="368.00" arrivalLane="E86_0" arrivalPos="183.31" arrivalSpeed="9.71" duration="321.00" routeLength="2285.15" waitingTime="4.00" waitingCount="2" stopTime="40.00" timeLoss="46.14" rerouteNo="9" devices="tripinfo_vehicle_48" vType="DEFAULT_VEHTYPE@vehicle_48" speedFactor="0.88" vaporized=""/>
    <tripinfo id="vehicle_38" depart="39.00" departLane="-E74_0" departPos="0.00" departSpeed="0.10" departDelay="2.00" arrival="370.00" arrivalLane="E86_0" arrivalPos="183.31" arrivalSpeed="9.79" duration="331.00" routeLength="2387.90" waitingTime="4.00" waitingCount="1" stopTime="40.00" timeLoss="49.02" rerouteNo="5" devices="tripinfo_vehicle_38" vType="DEFAULT_VEHTYPE@vehicle_38" speedFactor="1.10" vaporized=""/>
    <tripinfo id="vehicle_4" depart="3.00" departLane="E65_0" departPos="0.00" departSpeed="0.10" departDelay="0.00" arrival="372.00" arrivalLane="E86_0" arrivalPos="183.31" arrivalSpeed="9.76" duration="369.00" routeLength="2720.54" waitingTime="2.00" waitingCount="1" stopTime="40.00" timeLoss="50.78" rerouteNo="13" devices="tripinfo_vehicle_4" vType="DEFAULT_VEHTYPE@vehicle_4" speedFactor="1.03" vaporized=""/>
    <tripinfo id="vehicle_22" depart="21.00" departLane="E51_0" departPos="0.00" departSpeed="0.10" departDelay="0.00" arrival="374.00" arrivalLane="E86_0" arrivalPos="183.31" arrivalSpeed="9.13" duration="353.00" routeLength="2630.14" waitingTime="4.00" waitingCount="2" stopTime="40.00" timeLoss="45.00" rerouteNo="11" devices="tripinfo_vehicle_22" vType="DEFAULT_VEHTYPE@vehicle_22" speedFactor="0.97" vaporized=""/>
</tripinfos>
