<?xml version="1.0" encoding="UTF-8"?>

<!-- generated on 2024-08-11 12:28:31 by Eclipse SUMO GUI Version 1.15.0
<configuration xmlns:xsi="http://www.w3.org/2001/XMLSchema-instance" xsi:noNamespaceSchemaLocation="http://sumo.dlr.de/xsd/sumoConfiguration.xsd">

    <input>
        <net-file value="parking_on_off_road.net.xml"/>
        <route-files value="parking_on_off_road.rou.xml"/>
        <additional-files value="parking_on_off_road.add.xml"/>
    </input>

    <output>
        <tripinfo-output value="tripinfo-xml"/>
    </output>

    <traci_server>
        <remote-port value="58627"/>
    </traci_server>

</configuration>
-->

<tripinfos xmlns:xsi="http://www.w3.org/2001/XMLSchema-instance" xsi:noNamespaceSchemaLocation="http://sumo.dlr.de/xsd/tripinfo_file.xsd">
    <tripinfo id="carflow.2" depart="8.00" departLane="-E2_0" departPos="5.10" departSpeed="0.00" departDelay="8.00" arrival="120.00" arrivalLane="E1_0" arrivalPos="43.82" arrivalSpeed="7.55" duration="112.00" routeLength="567.47" waitingTime="30.00" waitingCount="1" stopTime="0.00" timeLoss="52.84" rerouteNo="5" devices="tripinfo_carflow.2" vType="car" speedFactor="1.01" vaporized=""/>
    <tripinfo id="carflow.9" depart="35.00" departLane="-E2_0" departPos="5.10" departSpeed="0.00" departDelay="35.00" arrival="124.00" arrivalLane="E1_0" arrivalPos="43.82" arrivalSpeed="7.89" duration="89.00" routeLength="338.41" waitingTime="22.00" waitingCount="3" stopTime="0.00" timeLoss="50.68" rerouteNo="3" devices="tripinfo_carflow.9" vType="car" speedFactor="0.86" vaporized=""/>
    <tripinfo id="carflow.0" depart="0.00" departLane="-E2_0" departPos="5.10" departSpeed="0.00" departDelay="0.00" arrival="127.00" arrivalLane="E1_0" arrivalPos="43.82" arrivalSpeed="8.20" duration="127.00" routeLength="354.31" waitingTime="24.00" waitingCount="1" stopTime="40.00" timeLoss="50.40" rerouteNo="4" devices="tripinfo_carflow.0" vType="car" speedFactor="1.06" vaporized=""/>
    <tripinfo id="carflow.4" depart="16.00" departLane="-E2_0" departPos="5.10" departSpeed="0.00" departDelay="16.00" arrival="135.00" arrivalLane="E1_0" arrivalPos="43.82" arrivalSpeed="9.32" duration="119.00" routeLength="338.41" waitingTime="11.00" waitingCount="3" stopTime="41.00" timeLoss="41.90" rerouteNo="4" devices="tripinfo_carflow.4" vType="car" speedFactor="1.03" vaporized=""/>
    <tripinfo id="carflow.16" depart="64.00" departLane="-E2_0" departPos="5.10" departSpeed="0.00" departDelay="64.00" arrival="140.00" arrivalLane="E1_0" arrivalPos="43.82" arrivalSpeed="9.01" duration="76.00" routeLength="338.41" waitingTime="6.00" waitingCount="1" stopTime="0.00" timeLoss="37.68" rerouteNo="3" devices="tripinfo_carflow.16" vType="car" speedFactor="0.88" vaporized=""/>
    <tripinfo id="carflow.6" depart="25.00" departLane="-E2_0" departPos="5.10" departSpeed="0.00" departDelay="25.00" arrival="148.00" arrivalLane="E1_0" arrivalPos="43.82" arrivalSpeed="9.67" duration="123.00" routeLength="338.41" waitingTime="23.00" waitingCount="4" stopTime="60.00" timeLoss="26.21" rerouteNo="3" devices="tripinfo_carflow.6" vType="car" speedFactor="1.05" vaporized=""/>
    <tripinfo id="carflow.1" depart="3.00" departLane="-E2_0" departPos="5.10" departSpeed="0.00" departDelay="3.00" arrival="151.00" arrivalLane="E1_0" arrivalPos="43.82" arrivalSpeed="9.67" duration="148.00" routeLength="491.71" waitingTime="20.00" waitingCount="2" stopTime="43.00" timeLoss="54.00" rerouteNo="3" devices="tripinfo_carflow.1" vType="car" speedFactor="0.94" vaporized=""/>
    <tripinfo id="carflow.21" depart="85.00" departLane="-E2_0" departPos="5.10" departSpeed="0.00" departDelay="85.00" arrival="155.00" arrivalLane="E1_0" arrivalPos="43.82" arrivalSpeed="8.49" duration="70.00" routeLength="474.62" waitingTime="0.00" waitingCount="0" stopTime="0.00" timeLoss="19.78" rerouteNo="7" devices="tripinfo_carflow.21" vType="car" speedFactor="1.01" vaporized=""/>
    <tripinfo id="carflow.7" depart="29.00" departLane="-E2_0" departPos="5.10" departSpeed="0.00" departDelay="29.00" arrival="163.00" arrivalLane="E1_0" arrivalPos="43.82" arrivalSpeed="8.40" duration="134.00" routeLength="592.71" waitingTime="0.00" waitingCount="0" stopTime="40.00" timeLoss="31.96" rerouteNo="3" devices="tripinfo_carflow.7" vType="car" speedFactor="0.89" vaporized=""/>
    <tripinfo id="carflow.5" depart="20.00" departLane="-E2_0" departPos="5.10" departSpeed="0.00" departDelay="20.00" arrival="168.00" arrivalLane="E1_0" arrivalPos="43.82" arrivalSpeed="9.84" duration="148.00" routeLength="405.71" waitingTime="22.00" waitingCount="4" stopTime="40.00" timeLoss="65.36" rerouteNo="3" devices="tripinfo_carflow.5" vType="car" speedFactor="0.83" vaporized=""/>
    <tripinfo id="carflow.3" depart="12.00" departLane="-E2_0" departPos="5.10" departSpeed="0.00" departDelay="12.00" arrival="171.00" arrivalLane="E1_0" arrivalPos="43.82" arrivalSpeed="8.04" duration="159.00" routeLength="600.95" waitingTime="11.00" waitingCount="6" stopTime="40.00" timeLoss="56.01" rerouteNo="3" devices="tripinfo_carflow.3" vType="car" speedFactor="1.08" vaporized=""/>
    <tripinfo id="carflow.8" depart="32.00" departLane="-E2_0" departPos="5.10" departSpeed="0.00" departDelay="32.00" arrival="174.00" arrivalLane="E1_0" arrivalPos="43.82" arrivalSpeed="8.29" duration="142.00" routeLength="453.66" waitingTime="9.00" waitingCount="9" stopTime="40.00" timeLoss="54.32" rerouteNo="3" devices="tripinfo_carflow.8" vType="car" speedFactor="0.94" vaporized=""/>
    <tripinfo id="carflow.13" depart="50.00" departLane="-E2_0" departPos="5.10" departSpeed="0.00" departDelay="50.00" arrival="184.00" arrivalLane="E1_0" arrivalPos="43.82" arrivalSpeed="8.48" duration="134.00" routeLength="581.80" waitingTime="2.00" waitingCount="1" stopTime="40.00" timeLoss="32.83" rerouteNo="7" devices="tripinfo_carflow.13" vType="car" speedFactor="1.12" vaporized=""/>
    <tripinfo id="carflow.19" depart="75.00" departLane="-E2_0" departPos="5.10" departSpeed="0.00" departDelay="75.00" arrival="189.00" arrivalLane="E1_0" arrivalPos="43.82" arrivalSpeed="7.84" duration="114.00" routeLength="439.15" waitingTime="3.00" waitingCount="2" stopTime="40.00" timeLoss="28.71" rerouteNo="3" devices="tripinfo_carflow.19" vType="car" speedFactor="1.16" vaporized=""/>
    <tripinfo id="carflow.12" depart="46.00" departLane="-E2_0" departPos="5.10" departSpeed="0.00" departDelay="46.00" arrival="194.00" arrivalLane="E1_0" arrivalPos="43.82" arrivalSpeed="9.29" duration="148.00" routeLength="405.71" waitingTime="14.00" waitingCount="8" stopTime="40.00" timeLoss="66.00" rerouteNo="2" devices="tripinfo_carflow.12" vType="car" speedFactor="1.05" vaporized=""/>
    <tripinfo id="carflow.14" depart="54.00" departLane="-E2_0" departPos="5.10" departSpeed="0.00" departDelay="54.00" arrival="197.00" arrivalLane="E1_0" arrivalPos="43.82" arrivalSpeed="7.68" duration="143.00" routeLength="405.71" waitingTime="10.00" waitingCount="3" stopTime="40.00" timeLoss="61.22" rerouteNo="2" devices="tripinfo_carflow.14" vType="car" speedFactor="0.99" vaporized=""/>
    <tripinfo id="carflow.18" depart="71.00" departLane="-E2_0" departPos="5.10" departSpeed="0.00" departDelay="71.00" arrival="201.00" arrivalLane="E1_0" arrivalPos="43.82" arrivalSpeed="8.11" duration="130.00" routeLength="405.71" waitingTime="6.00" waitingCount="3" stopTime="40.00" timeLoss="47.88" rerouteNo="2" devices="tripinfo_carflow.18" vType="car" speedFactor="0.94" vaporized=""/>
    <tripinfo id="carflow.20" depart="80.00" departLane="-E2_0" departPos="5.10" departSpeed="0.00" departDelay="80.00" arrival="205.00" arrivalLane="E1_0" arrivalPos="43.82" arrivalSpeed="9.94" duration="125.00" routeLength="354.31" waitingTime="3.00" waitingCount="2" stopTime="40.00" timeLoss="47.76" rerouteNo="3" devices="tripinfo_carflow.20" vType="car" speedFactor="1.02" vaporized=""/>
    <tripinfo id="carflow.24" depart="95.00" departLane="-E2_0" departPos="5.10" departSpeed="0.00" departDelay="95.00" arrival="210.00" arrivalLane="E1_0" arrivalPos="43.82" arrivalSpeed="7.57" duration="115.00" routeLength="449.48" waitingTime="1.00" waitingCount="1" stopTime="40.00" timeLoss="25.71" rerouteNo="4" devices="tripinfo_carflow.24" vType="car" speedFactor="0.83" vaporized=""/>
    <tripinfo id="carflow.10" depart="39.00" departLane="-E2_0" departPos="5.10" departSpeed="0.00" departDelay="39.00" arrival="213.00" arrivalLane="E1_0" arrivalPos="43.82" arrivalSpeed="8.75" duration="174.00" routeLength="578.22" waitingTime="9.00" waitingCount="5" stopTime="40.00" timeLoss="73.65" rerouteNo="4" devices="tripinfo_carflow.10" vType="car" speedFactor="1.09" vaporized=""/>
    <tripinfo id="carflow.17" depart="68.00" departLane="-E2_0" departPos="5.10" departSpeed="0.00" departDelay="68.00" arrival="216.00" arrivalLane="E1_0" arrivalPos="43.82" arrivalSpeed="9.77" duration="148.00" routeLength="588.94" waitingTime="3.00" waitingCount="2" stopTime="40.00" timeLoss="47.18" rerouteNo="4" devices="tripinfo_carflow.17" vType="car" speedFactor="0.94" vaporized=""/>
    <tripinfo id="carflow.23" depart="92.00" departLane="-E2_0" departPos="5.10" departSpeed="0.00" departDelay="92.00" arrival="220.00" arrivalLane="E1_0" arrivalPos="43.82" arrivalSpeed="7.63" duration="128.00" routeLength="491.71" waitingTime="1.00" waitingCount="1" stopTime="40.00" timeLoss="35.87" rerouteNo="2" devices="tripinfo_carflow.23" vType="car" speedFactor="0.89" vaporized=""/>
    <tripinfo id="carflow.15" depart="59.00" departLane="-E2_0" departPos="5.10" departSpeed="0.00" departDelay="59.00" arrival="224.00" arrivalLane="E1_0" arrivalPos="43.82" arrivalSpeed="8.48" duration="165.00" routeLength="578.22" waitingTime="18.00" waitingCount="2" stopTime="40.00" timeLoss="62.37" rerouteNo="7" devices="tripinfo_carflow.15" vType="car" speedFactor="0.93" vaporized=""/>
    <tripinfo id="carflow.22" depart="88.00" departLane="-E2_0" departPos="5.10" departSpeed="0.00" departDelay="88.00" arrival="230.00" arrivalLane="E1_0" arrivalPos="43.82" arrivalSpeed="9.24" duration="142.00" routeLength="596.04" waitingTime="1.00" waitingCount="1" stopTime="40.00" timeLoss="39.13" rerouteNo="3" devices="tripinfo_carflow.22" vType="car" speedFactor="0.97" vaporized=""/>
    <tripinfo id="carflow.11" depart="42.00" departLane="-E2_0" departPos="5.10" departSpeed="0.00" departDelay="42.00" arrival="233.00" arrivalLane="E1_0" arrivalPos="43.82" arrivalSpeed="7.85" duration="191.00" routeLength="819.95" waitingTime="4.00" waitingCount="2" stopTime="40.00" timeLoss="64.69" rerouteNo="9" devices="tripinfo_carflow.11" vType="car" speedFactor="1.03" vaporized=""/>
</tripinfos>
