<?xml version="1.0" encoding="UTF-8"?>

<!-- generated on 2024-09-26 16:03:04 by Eclipse SUMO GUI Version v1_20_0+2013-dea7f8276dd
<sumoConfiguration xmlns:xsi="http://www.w3.org/2001/XMLSchema-instance" xsi:noNamespaceSchemaLocation="http://sumo.dlr.de/xsd/sumoConfiguration.xsd">

    <input>
        <net-file value="parking_on_off_road.net.xml"/>
        <route-files value="parking_on_off_road.rou.xml"/>
        <additional-files value="parking_on_off_road.add.xml"/>
    </input>

    <output>
        <tripinfo-output value="tripinfo-xml"/>
    </output>

    <traci_server>
        <remote-port value="36871"/>
    </traci_server>

</sumoConfiguration>
-->

<tripinfos xmlns:xsi="http://www.w3.org/2001/XMLSchema-instance" xsi:noNamespaceSchemaLocation="http://sumo.dlr.de/xsd/tripinfo_file.xsd">
    <tripinfo id="carflow.7" depart="28.00" departLane="-E85_0" departPos="5.10" departSpeed="0.00" departDelay="0.00" arrival="202.00" arrivalLane="E86_0" arrivalPos="183.31" arrivalSpeed="8.17" duration="174.00" routeLength="901.13" waitingTime="0.00" waitingCount="0" stopTime="40.00" timeLoss="38.32" rerouteNo="6" devices="tripinfo_carflow.7" vType="car" speedFactor="0.89" vaporized=""/>
    <tripinfo id="carflow.29" depart="116.00" departLane="-E85_0" departPos="5.10" departSpeed="0.00" departDelay="0.00" arrival="205.00" arrivalLane="-E40_0" arrivalPos="89.06" arrivalSpeed="9.58" duration="89.00" routeLength="647.55" waitingTime="0.00" waitingCount="0" stopTime="0.00" timeLoss="20.88" rerouteNo="2" devices="tripinfo_carflow.29" vType="car" speedFactor="0.93" vaporized=""/>
    <tripinfo id="carflow.8" depart="33.00" departLane="-E85_0" departPos="5.10" departSpeed="0.00" departDelay="1.00" arrival="207.00" arrivalLane="E86_0" arrivalPos="183.31" arrivalSpeed="8.49" duration="174.00" routeLength="953.28" waitingTime="4.00" waitingCount="2" stopTime="41.00" timeLoss="34.61" rerouteNo="5" devices="tripinfo_carflow.8" vType="car" speedFactor="0.94" vaporized=""/>
    <tripinfo id="carflow.4" depart="16.00" departLane="-E85_0" departPos="5.10" departSpeed="0.00" departDelay="0.00" arrival="211.00" arrivalLane="E86_0" arrivalPos="183.31" arrivalSpeed="8.59" duration="195.00" routeLength="1053.88" waitingTime="4.00" waitingCount="2" stopTime="40.00" timeLoss="46.62" rerouteNo="3" devices="tripinfo_carflow.4" vType="car" speedFactor="1.03" vaporized=""/>
    <tripinfo id="carflow.1" depart="4.00" departLane="-E85_0" departPos="5.10" departSpeed="0.00" departDelay="0.00" arrival="231.00" arrivalLane="E86_0" arrivalPos="183.31" arrivalSpeed="7.60" duration="227.00" routeLength="1343.51" waitingTime="1.00" waitingCount="1" stopTime="40.00" timeLoss="46.47" rerouteNo="10" devices="tripinfo_carflow.1" vType="car" speedFactor="0.94" vaporized=""/>
    <tripinfo id="carflow.13" depart="52.00" departLane="-E85_0" departPos="5.10" departSpeed="0.00" departDelay="0.00" arrival="250.00" arrivalLane="E86_0" arrivalPos="183.31" arrivalSpeed="9.59" duration="198.00" routeLength="1184.23" waitingTime="0.00" waitingCount="0" stopTime="40.00" timeLoss="37.58" rerouteNo="7" devices="tripinfo_carflow.13" vType="car" speedFactor="1.12" vaporized=""/>
    <tripinfo id="carflow.21" depart="84.00" departLane="-E85_0" departPos="5.10" departSpeed="0.00" departDelay="0.00" arrival="266.00" arrivalLane="E86_0" arrivalPos="183.31" arrivalSpeed="9.16" duration="182.00" routeLength="799.74" waitingTime="17.00" waitingCount="3" stopTime="45.00" timeLoss="53.98" rerouteNo="3" devices="tripinfo_carflow.21" vType="car" speedFactor="1.01" vaporized=""/>
    <tripinfo id="carflow.9" depart="36.00" departLane="-E85_0" departPos="5.10" departSpeed="0.00" departDelay="0.00" arrival="272.00" arrivalLane="E86_0" arrivalPos="183.31" arrivalSpeed="9.85" duration="236.00" routeLength="1464.84" waitingTime="0.00" waitingCount="0" stopTime="40.00" timeLoss="43.28" rerouteNo="6" devices="tripinfo_carflow.9" vType="car" speedFactor="0.86" vaporized=""/>
    <tripinfo id="carflow.12" depart="48.00" departLane="-E85_0" departPos="5.10" departSpeed="0.00" departDelay="0.00" arrival="277.00" arrivalLane="E86_0" arrivalPos="183.31" arrivalSpeed="9.78" duration="229.00" routeLength="1430.05" waitingTime="1.00" waitingCount="1" stopTime="40.00" timeLoss="42.46" rerouteNo="6" devices="tripinfo_carflow.12" vType="car" speedFactor="1.05" vaporized=""/>
    <tripinfo id="carflow.22" depart="88.00" departLane="-E85_0" departPos="5.10" departSpeed="0.00" departDelay="0.00" arrival="280.00" arrivalLane="E86_0" arrivalPos="183.31" arrivalSpeed="8.09" duration="192.00" routeLength="1055.10" waitingTime="1.00" waitingCount="1" stopTime="40.00" timeLoss="43.42" rerouteNo="4" devices="tripinfo_carflow.22" vType="car" speedFactor="0.97" vaporized=""/>
    <tripinfo id="carflow.26" depart="104.00" departLane="-E85_0" departPos="5.10" departSpeed="0.00" departDelay="0.00" arrival="286.00" arrivalLane="E86_0" arrivalPos="183.31" arrivalSpeed="8.27" duration="182.00" routeLength="1012.83" waitingTime="1.00" waitingCount="1" stopTime="40.00" timeLoss="36.03" rerouteNo="4" devices="tripinfo_carflow.26" vType="car" speedFactor="0.92" vaporized=""/>
    <tripinfo id="carflow.14" depart="56.00" departLane="-E85_0" departPos="5.10" departSpeed="0.00" departDelay="0.00" arrival="290.00" arrivalLane="E86_0" arrivalPos="183.31" arrivalSpeed="9.45" duration="234.00" routeLength="1143.36" waitingTime="26.00" waitingCount="3" stopTime="45.00" timeLoss="70.68" rerouteNo="4" devices="tripinfo_carflow.14" vType="car" speedFactor="0.99" vaporized=""/>
    <tripinfo id="carflow.31" depart="125.00" departLane="-E85_0" departPos="5.10" departSpeed="0.00" departDelay="1.00" arrival="294.00" arrivalLane="E86_0" arrivalPos="183.31" arrivalSpeed="9.22" duration="169.00" routeLength="847.42" waitingTime="6.00" waitingCount="1" stopTime="40.00" timeLoss="42.69" rerouteNo="3" devices="tripinfo_carflow.31" vType="car" speedFactor="1.15" vaporized=""/>
    <tripinfo id="carflow.35" depart="141.00" departLane="-E85_0" departPos="5.10" departSpeed="0.00" departDelay="1.00" arrival="297.00" arrivalLane="E86_0" arrivalPos="183.31" arrivalSpeed="9.95" duration="156.00" routeLength="799.74" waitingTime="4.00" waitingCount="1" stopTime="44.00" timeLoss="28.64" rerouteNo="3" devices="tripinfo_carflow.35" vType="car" speedFactor="1.02" vaporized=""/>
    <tripinfo id="carflow.25" depart="100.00" departLane="-E85_0" departPos="5.10" departSpeed="0.00" departDelay="0.00" arrival="310.00" arrivalLane="E86_0" arrivalPos="183.31" arrivalSpeed="7.74" duration="210.00" routeLength="1223.41" waitingTime="0.00" waitingCount="0" stopTime="40.00" timeLoss="42.28" rerouteNo="2" devices="tripinfo_carflow.25" vType="car" speedFactor="0.87" vaporized=""/>
    <tripinfo id="carflow.27" depart="108.00" departLane="-E85_0" departPos="5.10" departSpeed="0.00" departDelay="0.00" arrival="312.00" arrivalLane="-E40_0" arrivalPos="89.06" arrivalSpeed="2.84" duration="204.00" routeLength="1385.07" waitingTime="1.00" waitingCount="1" stopTime="0.00" timeLoss="59.12" rerouteNo="14" devices="tripinfo_carflow.27" vType="car" speedFactor="0.95" vaporized=""/>
    <tripinfo id="carflow.10" depart="40.00" departLane="-E85_0" departPos="5.10" departSpeed="0.00" departDelay="0.00" arrival="314.00" arrivalLane="E86_0" arrivalPos="183.31" arrivalSpeed="9.45" duration="274.00" routeLength="1708.02" waitingTime="5.00" waitingCount="1" stopTime="45.00" timeLoss="55.66" rerouteNo="2" devices="tripinfo_carflow.10" vType="car" speedFactor="1.09" vaporized=""/>
    <tripinfo id="carflow.11" depart="44.00" departLane="-E85_0" departPos="5.10" departSpeed="0.00" departDelay="0.00" arrival="319.00" arrivalLane="E86_0" arrivalPos="183.31" arrivalSpeed="8.16" duration="275.00" routeLength="1686.68" waitingTime="0.00" waitingCount="0" stopTime="40.00" timeLoss="63.15" rerouteNo="3" devices="tripinfo_carflow.11" vType="car" speedFactor="1.03" vaporized=""/>
    <tripinfo id="carflow.20" depart="80.00" departLane="-E85_0" departPos="5.10" departSpeed="0.00" departDelay="0.00" arrival="322.00" arrivalLane="-E40_0" arrivalPos="89.06" arrivalSpeed="8.93" duration="242.00" routeLength="1804.27" waitingTime="0.00" waitingCount="0" stopTime="0.00" timeLoss="57.20" rerouteNo="7" devices="tripinfo_carflow.20" vType="car" speedFactor="1.02" vaporized=""/>
    <tripinfo id="carflow.23" depart="92.00" departLane="-E85_0" departPos="5.10" departSpeed="0.00" departDelay="0.00" arrival="327.00" arrivalLane="E86_0" arrivalPos="183.31" arrivalSpeed="7.71" duration="235.00" routeLength="1358.03" waitingTime="3.00" waitingCount="2" stopTime="40.00" timeLoss="52.47" rerouteNo="4" devices="tripinfo_carflow.23" vType="car" speedFactor="0.89" vaporized=""/>
    <tripinfo id="carflow.17" depart="68.00" departLane="-E85_0" departPos="5.10" departSpeed="0.00" departDelay="0.00" arrival="329.00" arrivalLane="E86_0" arrivalPos="183.31" arrivalSpeed="7.79" duration="261.00" routeLength="1507.09" waitingTime="1.00" waitingCount="1" stopTime="40.00" timeLoss="65.45" rerouteNo="4" devices="tripinfo_carflow.17" vType="car" speedFactor="0.94" vaporized=""/>
    <tripinfo id="carflow.19" depart="76.00" departLane="-E85_0" departPos="5.10" departSpeed="0.00" departDelay="0.00" arrival="332.00" arrivalLane="E86_0" arrivalPos="183.31" arrivalSpeed="9.70" duration="256.00" routeLength="1491.50" waitingTime="4.00" waitingCount="2" stopTime="40.00" timeLoss="63.91" rerouteNo="4" devices="tripinfo_carflow.19" vType="car" speedFactor="1.16" vaporized=""/>
    <tripinfo id="carflow.6" depart="24.00" departLane="-E85_0" departPos="5.10" departSpeed="0.00" departDelay="0.00" arrival="337.00" arrivalLane="E86_0" arrivalPos="183.31" arrivalSpeed="7.95" duration="313.00" routeLength="1867.70" waitingTime="14.00" waitingCount="2" stopTime="46.00" timeLoss="76.91" rerouteNo="2" devices="tripinfo_carflow.6" vType="car" speedFactor="1.05" vaporized=""/>
    <tripinfo id="carflow.2" depart="8.00" departLane="-E85_0" departPos="5.10" departSpeed="0.00" departDelay="0.00" arrival="341.00" arrivalLane="E86_0" arrivalPos="183.31" arrivalSpeed="9.18" duration="333.00" routeLength="2176.42" waitingTime="1.00" waitingCount="1" stopTime="40.00" timeLoss="71.53" rerouteNo="5" devices="tripinfo_carflow.2" vType="car" speedFactor="1.01" vaporized=""/>
    <tripinfo id="carflow.33" depart="132.00" departLane="-E85_0" departPos="5.10" departSpeed="0.00" departDelay="0.00" arrival="346.00" arrivalLane="E86_0" arrivalPos="183.31" arrivalSpeed="9.65" duration="214.00" routeLength="962.80" waitingTime="30.00" waitingCount="1" stopTime="40.00" timeLoss="75.91" rerouteNo="2" devices="tripinfo_carflow.33" vType="car" speedFactor="1.17" vaporized=""/>
    <tripinfo id="carflow.24" depart="96.00" departLane="-E85_0" departPos="5.10" departSpeed="0.00" departDelay="0.00" arrival="349.00" arrivalLane="E86_0" arrivalPos="183.31" arrivalSpeed="8.11" duration="253.00" routeLength="1141.73" waitingTime="20.00" waitingCount="3" stopTime="40.00" timeLoss="91.23" rerouteNo="8" devices="tripinfo_carflow.24" vType="car" speedFactor="0.83" vaporized=""/>
    <tripinfo id="carflow.5" depart="20.00" departLane="-E85_0" departPos="5.10" departSpeed="0.00" departDelay="0.00" arrival="352.00" arrivalLane="E86_0" arrivalPos="183.31" arrivalSpeed="8.95" duration="332.00" routeLength="2168.10" waitingTime="0.00" waitingCount="0" stopTime="40.00" timeLoss="68.74" rerouteNo="4" devices="tripinfo_carflow.5" vType="car" speedFactor="0.83" vaporized=""/>
    <tripinfo id="carflow.32" depart="128.00" departLane="-E85_0" departPos="5.10" departSpeed="0.00" departDelay="0.00" arrival="357.00" arrivalLane="E86_0" arrivalPos="183.31" arrivalSpeed="9.48" duration="229.00" routeLength="1440.39" waitingTime="0.00" waitingCount="0" stopTime="40.00" timeLoss="42.05" rerouteNo="3" devices="tripinfo_carflow.32" vType="car" speedFactor="1.01" vaporized=""/>
    <tripinfo id="carflow.18" depart="72.00" departLane="-E85_0" departPos="5.10" departSpeed="0.00" departDelay="0.00" arrival="362.00" arrivalLane="E86_0" arrivalPos="183.31" arrivalSpeed="8.85" duration="290.00" routeLength="1708.02" waitingTime="2.00" waitingCount="1" stopTime="40.00" timeLoss="75.26" rerouteNo="2" devices="tripinfo_carflow.18" vType="car" speedFactor="0.94" vaporized=""/>
    <tripinfo id="carflow.3" depart="12.00" departLane="-E85_0" departPos="5.10" departSpeed="0.00" departDelay="0.00" arrival="365.00" arrivalLane="E86_0" arrivalPos="183.31" arrivalSpeed="7.67" duration="353.00" routeLength="2361.82" waitingTime="0.00" waitingCount="0" stopTime="40.00" timeLoss="74.11" rerouteNo="5" devices="tripinfo_carflow.3" vType="car" speedFactor="1.08" vaporized=""/>
    <tripinfo id="carflow.43" depart="172.00" departLane="-E85_0" departPos="5.10" departSpeed="0.00" departDelay="0.00" arrival="374.00" arrivalLane="E86_0" arrivalPos="183.31" arrivalSpeed="7.98" duration="202.00" routeLength="1223.41" waitingTime="0.00" waitingCount="0" stopTime="40.00" timeLoss="37.47" rerouteNo="2" devices="tripinfo_carflow.43" vType="car" speedFactor="1.04" vaporized=""/>
    <tripinfo id="carflow.37" depart="149.00" departLane="-E85_0" departPos="5.10" departSpeed="0.00" departDelay="1.00" arrival="378.00" arrivalLane="E86_0" arrivalPos="183.31" arrivalSpeed="9.15" duration="229.00" routeLength="1057.71" waitingTime="27.00" waitingCount="2" stopTime="40.00" timeLoss="81.37" rerouteNo="3" devices="tripinfo_carflow.37" vType="car" speedFactor="1.18" vaporized=""/>
    <tripinfo id="carflow.16" depart="64.00" departLane="-E85_0" departPos="5.10" departSpeed="0.00" departDelay="0.00" arrival="382.00" arrivalLane="E86_0" arrivalPos="183.31" arrivalSpeed="9.45" duration="318.00" routeLength="1741.80" waitingTime="27.00" waitingCount="4" stopTime="40.00" timeLoss="98.38" rerouteNo="4" devices="tripinfo_carflow.16" vType="car" speedFactor="0.88" vaporized=""/>
    <tripinfo id="carflow.41" depart="164.00" departLane="-E85_0" departPos="5.10" departSpeed="0.00" departDelay="0.00" arrival="387.00" arrivalLane="E86_0" arrivalPos="183.31" arrivalSpeed="9.54" duration="223.00" routeLength="1353.93" waitingTime="0.00" waitingCount="0" stopTime="40.00" timeLoss="42.77" rerouteNo="8" devices="tripinfo_carflow.41" vType="car" speedFactor="0.96" vaporized=""/>
    <tripinfo id="carflow.40" depart="160.00" departLane="-E85_0" departPos="5.10" departSpeed="0.00" departDelay="0.00" arrival="391.00" arrivalLane="E86_0" arrivalPos="183.31" arrivalSpeed="9.40" duration="231.00" routeLength="1158.25" waitingTime="11.00" waitingCount="3" stopTime="40.00" timeLoss="70.91" rerouteNo="9" devices="tripinfo_carflow.40" vType="car" speedFactor="1.03" vaporized=""/>
    <tripinfo id="carflow.15" depart="60.00" departLane="-E85_0" departPos="5.10" departSpeed="0.00" departDelay="0.00" arrival="400.00" arrivalLane="E86_0" arrivalPos="183.31" arrivalSpeed="7.62" duration="340.00" routeLength="2149.76" waitingTime="0.00" waitingCount="0" stopTime="40.00" timeLoss="78.62" rerouteNo="5" devices="tripinfo_carflow.15" vType="car" speedFactor="0.93" vaporized=""/>
    <tripinfo id="carflow.47" depart="190.00" departLane="-E85_0" departPos="5.10" departSpeed="0.00" departDelay="2.00" arrival="409.00" arrivalLane="E86_0" arrivalPos="183.31" arrivalSpeed="7.99" duration="219.00" routeLength="1145.32" waitingTime="4.00" waitingCount="2" stopTime="40.00" timeLoss="56.30" rerouteNo="9" devices="tripinfo_carflow.47" vType="car" speedFactor="0.90" vaporized=""/>
    <tripinfo id="carflow.36" depart="145.00" departLane="-E85_0" departPos="5.10" departSpeed="0.00" departDelay="1.00" arrival="412.00" arrivalLane="E86_0" arrivalPos="183.31" arrivalSpeed="8.26" duration="267.00" routeLength="1520.79" waitingTime="1.00" waitingCount="1" stopTime="40.00" timeLoss="68.46" rerouteNo="12" devices="tripinfo_carflow.36" vType="car" speedFactor="0.97" vaporized=""/>
    <tripinfo id="carflow.38" depart="152.00" departLane="-E85_0" departPos="5.10" departSpeed="0.00" departDelay="0.00" arrival="420.00" arrivalLane="E86_0" arrivalPos="183.31" arrivalSpeed="9.37" duration="268.00" routeLength="1676.06" waitingTime="0.00" waitingCount="0" stopTime="40.00" timeLoss="56.43" rerouteNo="6" devices="tripinfo_carflow.38" vType="car" speedFactor="1.10" vaporized=""/>
    <tripinfo id="carflow.44" depart="176.00" departLane="-E85_0" departPos="5.10" departSpeed="0.00" departDelay="0.00" arrival="424.00" arrivalLane="E86_0" arrivalPos="183.31" arrivalSpeed="8.48" duration="248.00" routeLength="1496.89" waitingTime="2.00" waitingCount="1" stopTime="40.00" timeLoss="53.39" rerouteNo="8" devices="tripinfo_carflow.44" vType="car" speedFactor="1.04" vaporized=""/>
    <tripinfo id="carflow.30" depart="120.00" departLane="-E85_0" departPos="5.10" departSpeed="0.00" departDelay="0.00" arrival="429.00" arrivalLane="E86_0" arrivalPos="183.31" arrivalSpeed="9.00" duration="309.00" routeLength="1903.08" waitingTime="7.00" waitingCount="4" stopTime="40.00" timeLoss="76.41" rerouteNo="7" devices="tripinfo_carflow.30" vType="car" speedFactor="1.18" vaporized=""/>
    <tripinfo id="carflow.45" depart="181.00" departLane="-E85_0" departPos="5.10" departSpeed="0.00" departDelay="1.00" arrival="431.00" arrivalLane="E86_0" arrivalPos="183.31" arrivalSpeed="7.95" duration="250.00" routeLength="1498.45" waitingTime="8.00" waitingCount="2" stopTime="40.00" timeLoss="56.45" rerouteNo="5" devices="tripinfo_carflow.45" vType="car" speedFactor="1.09" vaporized=""/>
    <tripinfo id="carflow.49" depart="198.00" departLane="-E85_0" departPos="5.10" departSpeed="0.00" departDelay="2.00" arrival="436.00" arrivalLane="E86_0" arrivalPos="183.31" arrivalSpeed="8.38" duration="238.00" routeLength="1339.64" waitingTime="0.00" waitingCount="0" stopTime="40.00" timeLoss="54.87" rerouteNo="10" devices="tripinfo_carflow.49" vType="car" speedFactor="0.85" vaporized=""/>
    <tripinfo id="carflow.0" depart="0.00" departLane="-E85_0" departPos="5.10" departSpeed="0.00" departDelay="0.00" arrival="441.00" arrivalLane="E86_0" arrivalPos="183.31" arrivalSpeed="8.57" duration="441.00" routeLength="3007.08" waitingTime="1.00" waitingCount="1" stopTime="40.00" timeLoss="94.92" rerouteNo="22" devices="tripinfo_carflow.0" vType="car" speedFactor="1.06" vaporized=""/>
    <tripinfo id="carflow.42" depart="168.00" departLane="-E85_0" departPos="5.10" departSpeed="0.00" departDelay="0.00" arrival="444.00" arrivalLane="E86_0" arrivalPos="183.31" arrivalSpeed="9.68" duration="276.00" routeLength="1686.68" waitingTime="11.00" waitingCount="2" stopTime="40.00" timeLoss="64.70" rerouteNo="3" devices="tripinfo_carflow.42" vType="car" speedFactor="1.09" vaporized=""/>
    <tripinfo id="carflow.34" depart="136.00" departLane="-E85_0" departPos="5.10" departSpeed="0.00" departDelay="0.00" arrival="473.00" arrivalLane="E86_0" arrivalPos="183.31" arrivalSpeed="9.61" duration="337.00" routeLength="2059.72" waitingTime="10.00" waitingCount="1" stopTime="40.00" timeLoss="82.90" rerouteNo="12" devices="tripinfo_carflow.34" vType="car" speedFactor="0.99" vaporized=""/>
    <tripinfo id="carflow.28" depart="112.00" departLane="-E85_0" departPos="5.10" departSpeed="0.00" departDelay="0.00" arrival="485.00" arrivalLane="E86_0" arrivalPos="183.31" arrivalSpeed="8.16" duration="373.00" routeLength="2313.01" waitingTime="4.00" waitingCount="2" stopTime="40.00" timeLoss="95.67" rerouteNo="24" devices="tripinfo_carflow.28" vType="car" speedFactor="1.13" vaporized=""/>
    <tripinfo id="carflow.39" depart="156.00" departLane="-E85_0" departPos="5.10" departSpeed="0.00" departDelay="0.00" arrival="530.00" arrivalLane="E86_0" arrivalPos="183.31" arrivalSpeed="9.80" duration="374.00" routeLength="2340.34" waitingTime="16.00" waitingCount="3" stopTime="40.00" timeLoss="94.61" rerouteNo="7" devices="tripinfo_carflow.39" vType="car" speedFactor="0.90" vaporized=""/>
    <tripinfo id="carflow.48" depart="193.00" departLane="-E85_0" departPos="5.10" departSpeed="0.00" departDelay="1.00" arrival="536.00" arrivalLane="E86_0" arrivalPos="183.31" arrivalSpeed="8.62" duration="343.00" routeLength="2168.10" waitingTime="5.00" waitingCount="1" stopTime="40.00" timeLoss="79.26" rerouteNo="6" devices="tripinfo_carflow.48" vType="car" speedFactor="0.88" vaporized=""/>
    <tripinfo id="carflow.46" depart="185.00" departLane="-E85_0" departPos="5.10" departSpeed="0.00" departDelay="1.00" arrival="540.00" arrivalLane="E86_0" arrivalPos="183.31" arrivalSpeed="9.67" duration="355.00" routeLength="2191.16" waitingTime="18.00" waitingCount="3" stopTime="40.00" timeLoss="91.73" rerouteNo="5" devices="tripinfo_carflow.46" vType="car" speedFactor="1.00" vaporized=""/>
</tripinfos>
