<?xml version="1.0" encoding="UTF-8"?>

<!-- generated on 2024-07-29 18:48:59 by Eclipse SUMO GUI Version 1.15.0
<configuration xmlns:xsi="http://www.w3.org/2001/XMLSchema-instance" xsi:noNamespaceSchemaLocation="http://sumo.dlr.de/xsd/sumoConfiguration.xsd">

    <input>
        <net-file value="parking_on_off_road.net.xml"/>
        <route-files value="parking_on_off_road.rou.xml"/>
        <additional-files value="parking_on_off_road.add.xml"/>
    </input>

    <output>
        <tripinfo-output value="tripinfo-xml"/>
    </output>

    <traci_server>
        <remote-port value="53875"/>
    </traci_server>

</configuration>
-->

<tripinfos xmlns:xsi="http://www.w3.org/2001/XMLSchema-instance" xsi:noNamespaceSchemaLocation="http://sumo.dlr.de/xsd/tripinfo_file.xsd">
    <tripinfo id="carflow.0" depart="0.00" departLane="-E2_0" departPos="5.10" departSpeed="0.00" departDelay="0.00" arrival="102.00" arrivalLane="E1_0" arrivalPos="43.82" arrivalSpeed="9.51" duration="102.00" routeLength="354.31" waitingTime="0.00" waitingCount="0" stopTime="40.00" timeLoss="24.70" rerouteNo="3" devices="tripinfo_carflow.0" vType="car" speedFactor="1.06" vaporized=""/>
    <tripinfo id="carflow.3" depart="12.00" departLane="-E2_0" departPos="5.10" departSpeed="0.00" departDelay="12.00" arrival="115.00" arrivalLane="E1_0" arrivalPos="43.82" arrivalSpeed="7.74" duration="103.00" routeLength="405.71" waitingTime="3.00" waitingCount="2" stopTime="40.00" timeLoss="21.59" rerouteNo="3" devices="tripinfo_carflow.3" vType="car" speedFactor="1.08" vaporized=""/>
    <tripinfo id="carflow.1" depart="3.00" departLane="-E2_0" departPos="5.10" departSpeed="0.00" departDelay="3.00" arrival="120.00" arrivalLane="E1_0" arrivalPos="43.82" arrivalSpeed="9.60" duration="117.00" routeLength="453.66" waitingTime="1.00" waitingCount="1" stopTime="40.00" timeLoss="29.29" rerouteNo="3" devices="tripinfo_carflow.1" vType="car" speedFactor="0.94" vaporized=""/>
    <tripinfo id="carflow.2" depart="8.00" departLane="-E2_0" departPos="5.10" departSpeed="0.00" departDelay="8.00" arrival="132.00" arrivalLane="E1_0" arrivalPos="43.82" arrivalSpeed="9.96" duration="124.00" routeLength="504.26" waitingTime="2.00" waitingCount="2" stopTime="40.00" timeLoss="31.19" rerouteNo="2" devices="tripinfo_carflow.2" vType="car" speedFactor="1.01" vaporized=""/>
    <tripinfo id="carflow.4" depart="16.00" departLane="-E2_0" departPos="5.10" departSpeed="0.00" departDelay="16.00" arrival="147.00" arrivalLane="E1_0" arrivalPos="43.82" arrivalSpeed="8.64" duration="131.00" routeLength="592.71" waitingTime="1.00" waitingCount="1" stopTime="40.00" timeLoss="29.57" rerouteNo="2" devices="tripinfo_carflow.4" vType="car" speedFactor="1.03" vaporized=""/>
</tripinfos>
