<?xml version="1.0" encoding="UTF-8"?>

<!-- generated on 2024-10-07 17:55:37 by Eclipse SUMO GUI Version v1_20_0+2013-dea7f8276dd
<sumoConfiguration xmlns:xsi="http://www.w3.org/2001/XMLSchema-instance" xsi:noNamespaceSchemaLocation="http://sumo.dlr.de/xsd/sumoConfiguration.xsd">

    <input>
        <net-file value="parking_on_off_road.net.xml"/>
        <route-files value="parking_on_off_road.rou.xml"/>
        <additional-files value="parking_on_off_road.add.xml"/>
    </input>

    <output>
        <tripinfo-output value="tripinfo-xml"/>
    </output>

    <traci_server>
        <remote-port value="53153"/>
    </traci_server>

</sumoConfiguration>
-->

<tripinfos xmlns:xsi="http://www.w3.org/2001/XMLSchema-instance" xsi:noNamespaceSchemaLocation="http://sumo.dlr.de/xsd/tripinfo_file.xsd">
    <tripinfo id="carflow.1" depart="10.00" departLane="-E85_0" departPos="5.10" departSpeed="0.00" departDelay="0.00" arrival="96.00" arrivalLane="-E31_0" arrivalPos="81.93" arrivalSpeed="9.60" duration="86.00" routeLength="617.64" waitingTime="0.00" waitingCount="0" stopTime="0.00" timeLoss="21.73" rerouteNo="1" devices="tripinfo_carflow.1" vType="car" speedFactor="0.94" vaporized=""/>
    <tripinfo id="carflow.4" depart="40.00" departLane="-E85_0" departPos="5.10" departSpeed="0.00" departDelay="0.00" arrival="245.00" arrivalLane="E86_0" arrivalPos="183.31" arrivalSpeed="9.59" duration="205.00" routeLength="1256.22" waitingTime="1.00" waitingCount="1" stopTime="40.00" timeLoss="36.41" rerouteNo="4" devices="tripinfo_carflow.4" vType="car" speedFactor="1.03" vaporized=""/>
    <tripinfo id="carflow.7" depart="70.00" departLane="-E85_0" departPos="5.10" departSpeed="0.00" departDelay="0.00" arrival="283.00" arrivalLane="E86_0" arrivalPos="183.31" arrivalSpeed="9.57" duration="213.00" routeLength="1212.98" waitingTime="1.00" waitingCount="1" stopTime="40.00" timeLoss="46.78" rerouteNo="2" devices="tripinfo_carflow.7" vType="car" speedFactor="0.89" vaporized=""/>
    <tripinfo id="carflow.0" depart="0.00" departLane="-E85_0" departPos="5.10" departSpeed="0.00" departDelay="0.00" arrival="327.00" arrivalLane="E86_0" arrivalPos="183.31" arrivalSpeed="9.03" duration="327.00" routeLength="2155.41" waitingTime="4.00" waitingCount="3" stopTime="40.00" timeLoss="67.69" rerouteNo="6" devices="tripinfo_carflow.0" vType="car" speedFactor="1.06" vaporized=""/>
    <tripinfo id="carflow.13" depart="130.00" departLane="-E85_0" departPos="5.10" departSpeed="0.00" departDelay="0.00" arrival="337.00" arrivalLane="E86_0" arrivalPos="183.31" arrivalSpeed="9.59" duration="207.00" routeLength="1223.41" waitingTime="1.00" waitingCount="1" stopTime="40.00" timeLoss="42.94" rerouteNo="2" devices="tripinfo_carflow.13" vType="car" speedFactor="1.12" vaporized=""/>
    <tripinfo id="carflow.5" depart="50.00" departLane="-E85_0" departPos="5.10" departSpeed="0.00" departDelay="0.00" arrival="343.00" arrivalLane="E86_0" arrivalPos="183.31" arrivalSpeed="8.51" duration="293.00" routeLength="1867.70" waitingTime="0.00" waitingCount="0" stopTime="40.00" timeLoss="60.53" rerouteNo="4" devices="tripinfo_carflow.5" vType="car" speedFactor="0.83" vaporized=""/>
    <tripinfo id="carflow.3" depart="30.00" departLane="-E85_0" departPos="5.10" departSpeed="0.00" departDelay="0.00" arrival="373.00" arrivalLane="E86_0" arrivalPos="183.31" arrivalSpeed="9.44" duration="343.00" routeLength="2287.91" waitingTime="1.00" waitingCount="1" stopTime="40.00" timeLoss="69.64" rerouteNo="8" devices="tripinfo_carflow.3" vType="car" speedFactor="1.08" vaporized=""/>
    <tripinfo id="carflow.2" depart="20.00" departLane="-E85_0" departPos="5.10" departSpeed="0.00" departDelay="0.00" arrival="378.00" arrivalLane="E86_0" arrivalPos="183.31" arrivalSpeed="7.81" duration="358.00" routeLength="2457.63" waitingTime="0.00" waitingCount="0" stopTime="40.00" timeLoss="67.80" rerouteNo="5" devices="tripinfo_carflow.2" vType="car" speedFactor="1.01" vaporized=""/>
    <tripinfo id="carflow.19" depart="190.00" departLane="-E85_0" departPos="5.10" departSpeed="0.00" departDelay="0.00" arrival="393.00" arrivalLane="E86_0" arrivalPos="183.31" arrivalSpeed="7.96" duration="203.00" routeLength="1223.41" waitingTime="0.00" waitingCount="0" stopTime="40.00" timeLoss="38.88" rerouteNo="2" devices="tripinfo_carflow.19" vType="car" speedFactor="1.16" vaporized=""/>
    <tripinfo id="carflow.10" depart="100.00" departLane="-E85_0" departPos="5.10" departSpeed="0.00" departDelay="0.00" arrival="398.00" arrivalLane="E86_0" arrivalPos="183.31" arrivalSpeed="7.53" duration="298.00" routeLength="2002.52" waitingTime="1.00" waitingCount="1" stopTime="40.00" timeLoss="55.10" rerouteNo="2" devices="tripinfo_carflow.10" vType="car" speedFactor="1.09" vaporized=""/>
    <tripinfo id="carflow.11" depart="110.00" departLane="-E85_0" departPos="5.10" departSpeed="0.00" departDelay="0.00" arrival="409.00" arrivalLane="E86_0" arrivalPos="183.31" arrivalSpeed="9.12" duration="299.00" routeLength="1873.36" waitingTime="10.00" waitingCount="2" stopTime="49.00" timeLoss="58.35" rerouteNo="5" devices="tripinfo_carflow.11" vType="car" speedFactor="1.03" vaporized=""/>
    <tripinfo id="carflow.8" depart="80.00" departLane="-E85_0" departPos="5.10" departSpeed="0.00" departDelay="0.00" arrival="412.00" arrivalLane="E86_0" arrivalPos="183.31" arrivalSpeed="8.88" duration="332.00" routeLength="2101.91" waitingTime="2.00" waitingCount="1" stopTime="40.00" timeLoss="74.40" rerouteNo="11" devices="tripinfo_carflow.8" vType="car" speedFactor="0.94" vaporized=""/>
    <tripinfo id="carflow.12" depart="120.00" departLane="-E85_0" departPos="5.10" departSpeed="0.00" departDelay="0.00" arrival="450.00" arrivalLane="E86_0" arrivalPos="183.31" arrivalSpeed="7.90" duration="330.00" routeLength="2155.41" waitingTime="2.00" waitingCount="2" stopTime="40.00" timeLoss="70.87" rerouteNo="6" devices="tripinfo_carflow.12" vType="car" speedFactor="1.05" vaporized=""/>
    <tripinfo id="carflow.9" depart="90.00" departLane="-E85_0" departPos="5.10" departSpeed="0.00" departDelay="0.00" arrival="460.00" arrivalLane="E86_0" arrivalPos="183.31" arrivalSpeed="8.85" duration="370.00" routeLength="2465.82" waitingTime="0.00" waitingCount="0" stopTime="40.00" timeLoss="75.56" rerouteNo="4" devices="tripinfo_carflow.9" vType="car" speedFactor="0.86" vaporized=""/>
    <tripinfo id="carflow.15" depart="150.00" departLane="-E85_0" departPos="5.10" departSpeed="0.00" departDelay="0.00" arrival="475.00" arrivalLane="E86_0" arrivalPos="183.31" arrivalSpeed="9.10" duration="325.00" routeLength="2065.25" waitingTime="1.00" waitingCount="1" stopTime="40.00" timeLoss="70.61" rerouteNo="8" devices="tripinfo_carflow.15" vType="car" speedFactor="0.93" vaporized=""/>
    <tripinfo id="carflow.22" depart="220.00" departLane="-E85_0" departPos="5.10" departSpeed="0.00" departDelay="0.00" arrival="483.00" arrivalLane="E86_0" arrivalPos="183.31" arrivalSpeed="9.56" duration="263.00" routeLength="1671.38" waitingTime="1.00" waitingCount="1" stopTime="40.00" timeLoss="51.97" rerouteNo="7" devices="tripinfo_carflow.22" vType="car" speedFactor="0.97" vaporized=""/>
    <tripinfo id="carflow.16" depart="160.00" departLane="-E85_0" departPos="5.10" departSpeed="0.00" departDelay="0.00" arrival="488.00" arrivalLane="E86_0" arrivalPos="183.31" arrivalSpeed="8.16" duration="328.00" routeLength="1985.02" waitingTime="10.00" waitingCount="1" stopTime="40.00" timeLoss="80.73" rerouteNo="9" devices="tripinfo_carflow.16" vType="car" speedFactor="0.88" vaporized=""/>
    <tripinfo id="carflow.6" depart="60.00" departLane="-E85_0" departPos="5.10" departSpeed="0.00" departDelay="0.00" arrival="493.00" arrivalLane="E86_0" arrivalPos="183.31" arrivalSpeed="9.65" duration="433.00" routeLength="2944.13" waitingTime="5.00" waitingCount="4" stopTime="40.00" timeLoss="94.55" rerouteNo="10" devices="tripinfo_carflow.6" vType="car" speedFactor="1.05" vaporized=""/>
    <tripinfo id="carflow.24" depart="240.00" departLane="-E85_0" departPos="5.10" departSpeed="0.00" departDelay="0.00" arrival="498.00" arrivalLane="E86_0" arrivalPos="183.31" arrivalSpeed="8.52" duration="258.00" routeLength="1560.58" waitingTime="0.00" waitingCount="0" stopTime="40.00" timeLoss="55.53" rerouteNo="4" devices="tripinfo_carflow.24" vType="car" speedFactor="0.83" vaporized=""/>
    <tripinfo id="carflow.20" depart="200.00" departLane="-E85_0" departPos="5.10" departSpeed="0.00" departDelay="0.00" arrival="503.00" arrivalLane="E86_0" arrivalPos="183.31" arrivalSpeed="9.29" duration="303.00" routeLength="1938.71" waitingTime="1.00" waitingCount="1" stopTime="40.00" timeLoss="64.08" rerouteNo="9" devices="tripinfo_carflow.20" vType="car" speedFactor="1.02" vaporized=""/>
    <tripinfo id="carflow.18" depart="180.00" departLane="-E85_0" departPos="5.10" departSpeed="0.00" departDelay="0.00" arrival="507.00" arrivalLane="E86_0" arrivalPos="183.31" arrivalSpeed="8.75" duration="327.00" routeLength="2155.41" waitingTime="0.00" waitingCount="0" stopTime="40.00" timeLoss="65.89" rerouteNo="6" devices="tripinfo_carflow.18" vType="car" speedFactor="0.94" vaporized=""/>
    <tripinfo id="carflow.14" depart="140.00" departLane="-E85_0" departPos="5.10" departSpeed="0.00" departDelay="0.00" arrival="511.00" arrivalLane="E86_0" arrivalPos="183.31" arrivalSpeed="8.16" duration="371.00" routeLength="2443.30" waitingTime="2.00" waitingCount="1" stopTime="40.00" timeLoss="82.12" rerouteNo="6" devices="tripinfo_carflow.14" vType="car" speedFactor="0.99" vaporized=""/>
    <tripinfo id="carflow.17" depart="170.00" departLane="-E85_0" departPos="5.10" departSpeed="0.00" departDelay="0.00" arrival="518.00" arrivalLane="E86_0" arrivalPos="183.31" arrivalSpeed="8.72" duration="348.00" routeLength="2162.76" waitingTime="4.00" waitingCount="3" stopTime="40.00" timeLoss="86.49" rerouteNo="5" devices="tripinfo_carflow.17" vType="car" speedFactor="0.94" vaporized=""/>
    <tripinfo id="carflow.21" depart="210.00" departLane="-E85_0" departPos="5.10" departSpeed="0.00" departDelay="0.00" arrival="533.00" arrivalLane="E86_0" arrivalPos="183.31" arrivalSpeed="7.59" duration="323.00" routeLength="2176.05" waitingTime="3.00" waitingCount="1" stopTime="40.00" timeLoss="60.36" rerouteNo="13" devices="tripinfo_carflow.21" vType="car" speedFactor="1.01" vaporized=""/>
    <tripinfo id="carflow.36" depart="360.00" departLane="-E85_0" departPos="5.10" departSpeed="0.00" departDelay="0.00" arrival="572.00" arrivalLane="E86_0" arrivalPos="183.31" arrivalSpeed="9.73" duration="212.00" routeLength="1223.41" waitingTime="2.00" waitingCount="2" stopTime="40.00" timeLoss="45.27" rerouteNo="2" devices="tripinfo_carflow.36" vType="car" speedFactor="0.97" vaporized=""/>
    <tripinfo id="carflow.35" depart="350.00" departLane="-E85_0" departPos="5.10" departSpeed="0.00" departDelay="0.00" arrival="578.00" arrivalLane="E86_0" arrivalPos="183.31" arrivalSpeed="7.68" duration="228.00" routeLength="1353.93" waitingTime="1.00" waitingCount="1" stopTime="40.00" timeLoss="48.50" rerouteNo="4" devices="tripinfo_carflow.35" vType="car" speedFactor="1.02" vaporized=""/>
    <tripinfo id="carflow.26" depart="260.00" departLane="-E85_0" departPos="5.10" departSpeed="0.00" departDelay="0.00" arrival="582.00" arrivalLane="E86_0" arrivalPos="183.31" arrivalSpeed="8.97" duration="322.00" routeLength="2002.52" waitingTime="8.00" waitingCount="2" stopTime="40.00" timeLoss="76.68" rerouteNo="2" devices="tripinfo_carflow.26" vType="car" speedFactor="0.92" vaporized=""/>
    <tripinfo id="carflow.29" depart="290.00" departLane="-E85_0" departPos="5.10" departSpeed="0.00" departDelay="0.00" arrival="590.00" arrivalLane="E86_0" arrivalPos="183.31" arrivalSpeed="8.45" duration="300.00" routeLength="1873.36" waitingTime="4.00" waitingCount="3" stopTime="41.00" timeLoss="66.58" rerouteNo="5" devices="tripinfo_carflow.29" vType="car" speedFactor="0.93" vaporized=""/>
    <tripinfo id="carflow.25" depart="250.00" departLane="-E85_0" departPos="5.10" departSpeed="0.00" departDelay="0.00" arrival="599.00" arrivalLane="E86_0" arrivalPos="183.31" arrivalSpeed="9.67" duration="349.00" routeLength="2168.10" waitingTime="9.00" waitingCount="3" stopTime="40.00" timeLoss="85.88" rerouteNo="5" devices="tripinfo_carflow.25" vType="car" speedFactor="0.87" vaporized=""/>
    <tripinfo id="carflow.30" depart="300.00" departLane="-E85_0" departPos="5.10" departSpeed="0.00" departDelay="0.00" arrival="601.00" arrivalLane="E86_0" arrivalPos="183.31" arrivalSpeed="7.62" duration="301.00" routeLength="1873.36" waitingTime="0.00" waitingCount="0" stopTime="40.00" timeLoss="72.07" rerouteNo="5" devices="tripinfo_carflow.30" vType="car" speedFactor="1.18" vaporized=""/>
    <tripinfo id="carflow.33" depart="330.00" departLane="-E85_0" departPos="5.10" departSpeed="0.00" departDelay="0.00" arrival="606.00" arrivalLane="E86_0" arrivalPos="183.31" arrivalSpeed="9.66" duration="276.00" routeLength="1708.02" waitingTime="8.00" waitingCount="1" stopTime="46.00" timeLoss="57.40" rerouteNo="7" devices="tripinfo_carflow.33" vType="car" speedFactor="1.17" vaporized=""/>
    <tripinfo id="carflow.39" depart="390.00" departLane="-E85_0" departPos="5.10" departSpeed="0.00" departDelay="0.00" arrival="611.00" arrivalLane="E86_0" arrivalPos="183.31" arrivalSpeed="8.45" duration="221.00" routeLength="1354.17" waitingTime="0.00" waitingCount="0" stopTime="40.00" timeLoss="41.05" rerouteNo="2" devices="tripinfo_carflow.39" vType="car" speedFactor="0.90" vaporized=""/>
    <tripinfo id="carflow.28" depart="280.00" departLane="-E85_0" departPos="5.10" departSpeed="0.00" departDelay="0.00" arrival="621.00" arrivalLane="E86_0" arrivalPos="183.31" arrivalSpeed="9.27" duration="341.00" routeLength="2333.49" waitingTime="3.00" waitingCount="3" stopTime="40.00" timeLoss="64.25" rerouteNo="7" devices="tripinfo_carflow.28" vType="car" speedFactor="1.13" vaporized=""/>
    <tripinfo id="carflow.27" depart="270.00" departLane="-E85_0" departPos="5.10" departSpeed="0.00" departDelay="0.00" arrival="626.00" arrivalLane="E86_0" arrivalPos="183.31" arrivalSpeed="8.39" duration="356.00" routeLength="2336.66" waitingTime="2.00" waitingCount="1" stopTime="40.00" timeLoss="75.68" rerouteNo="10" devices="tripinfo_carflow.27" vType="car" speedFactor="0.95" vaporized=""/>
    <tripinfo id="carflow.31" depart="310.00" departLane="-E85_0" departPos="5.10" departSpeed="0.00" departDelay="0.00" arrival="630.00" arrivalLane="E86_0" arrivalPos="183.31" arrivalSpeed="8.49" duration="320.00" routeLength="2176.42" waitingTime="1.00" waitingCount="1" stopTime="40.00" timeLoss="60.97" rerouteNo="5" devices="tripinfo_carflow.31" vType="car" speedFactor="1.15" vaporized=""/>
    <tripinfo id="carflow.43" depart="430.00" departLane="-E85_0" departPos="5.10" departSpeed="0.00" departDelay="0.00" arrival="636.00" arrivalLane="E86_0" arrivalPos="183.31" arrivalSpeed="9.43" duration="206.00" routeLength="1212.98" waitingTime="1.00" waitingCount="1" stopTime="40.00" timeLoss="41.08" rerouteNo="5" devices="tripinfo_carflow.43" vType="car" speedFactor="1.04" vaporized=""/>
    <tripinfo id="carflow.23" depart="230.00" departLane="-E85_0" departPos="5.10" departSpeed="0.00" departDelay="0.00" arrival="640.00" arrivalLane="E86_0" arrivalPos="183.31" arrivalSpeed="7.75" duration="410.00" routeLength="2650.54" waitingTime="2.00" waitingCount="2" stopTime="40.00" timeLoss="95.49" rerouteNo="12" devices="tripinfo_carflow.23" vType="car" speedFactor="0.89" vaporized=""/>
    <tripinfo id="carflow.38" depart="380.00" departLane="-E85_0" departPos="5.10" departSpeed="0.00" departDelay="0.00" arrival="644.00" arrivalLane="E86_0" arrivalPos="183.31" arrivalSpeed="8.26" duration="264.00" routeLength="1672.20" waitingTime="1.00" waitingCount="1" stopTime="40.00" timeLoss="52.64" rerouteNo="5" devices="tripinfo_carflow.38" vType="car" speedFactor="1.10" vaporized=""/>
    <tripinfo id="carflow.34" depart="340.00" departLane="-E85_0" departPos="5.10" departSpeed="0.00" departDelay="0.00" arrival="647.00" arrivalLane="E86_0" arrivalPos="183.31" arrivalSpeed="9.15" duration="307.00" routeLength="2024.35" waitingTime="1.00" waitingCount="1" stopTime="40.00" timeLoss="60.73" rerouteNo="9" devices="tripinfo_carflow.34" vType="car" speedFactor="0.99" vaporized=""/>
    <tripinfo id="carflow.32" depart="320.00" departLane="-E85_0" departPos="5.10" departSpeed="0.00" departDelay="0.00" arrival="659.00" arrivalLane="E86_0" arrivalPos="183.31" arrivalSpeed="9.64" duration="339.00" routeLength="2173.42" waitingTime="5.00" waitingCount="2" stopTime="40.00" timeLoss="75.91" rerouteNo="6" devices="tripinfo_carflow.32" vType="car" speedFactor="1.01" vaporized=""/>
    <tripinfo id="carflow.46" depart="460.00" departLane="-E85_0" departPos="5.10" departSpeed="0.00" departDelay="0.00" arrival="666.00" arrivalLane="E86_0" arrivalPos="183.31" arrivalSpeed="9.58" duration="206.00" routeLength="1246.03" waitingTime="0.00" waitingCount="0" stopTime="40.00" timeLoss="38.46" rerouteNo="4" devices="tripinfo_carflow.46" vType="car" speedFactor="1.00" vaporized=""/>
    <tripinfo id="carflow.41" depart="410.00" departLane="-E85_0" departPos="5.10" departSpeed="0.00" departDelay="0.00" arrival="679.00" arrivalLane="E86_0" arrivalPos="183.31" arrivalSpeed="9.33" duration="269.00" routeLength="1686.68" waitingTime="1.00" waitingCount="1" stopTime="40.00" timeLoss="55.85" rerouteNo="3" devices="tripinfo_carflow.41" vType="car" speedFactor="0.96" vaporized=""/>
    <tripinfo id="carflow.37" depart="370.00" departLane="-E85_0" departPos="5.10" departSpeed="0.00" departDelay="0.00" arrival="688.00" arrivalLane="E86_0" arrivalPos="183.31" arrivalSpeed="8.43" duration="318.00" routeLength="2136.22" waitingTime="0.00" waitingCount="0" stopTime="40.00" timeLoss="62.17" rerouteNo="5" devices="tripinfo_carflow.37" vType="car" speedFactor="1.18" vaporized=""/>
    <tripinfo id="carflow.49" depart="490.00" departLane="-E85_0" departPos="5.10" departSpeed="0.00" departDelay="0.00" arrival="711.00" arrivalLane="E86_0" arrivalPos="183.31" arrivalSpeed="8.25" duration="221.00" routeLength="1223.41" waitingTime="4.00" waitingCount="2" stopTime="40.00" timeLoss="52.94" rerouteNo="2" devices="tripinfo_carflow.49" vType="car" speedFactor="0.85" vaporized=""/>
    <tripinfo id="carflow.48" depart="480.00" departLane="-E85_0" departPos="5.10" departSpeed="0.00" departDelay="0.00" arrival="723.00" arrivalLane="E86_0" arrivalPos="183.31" arrivalSpeed="7.87" duration="243.00" routeLength="1343.59" waitingTime="3.00" waitingCount="2" stopTime="40.00" timeLoss="63.22" rerouteNo="7" devices="tripinfo_carflow.48" vType="car" speedFactor="0.88" vaporized=""/>
    <tripinfo id="carflow.47" depart="470.00" departLane="-E85_0" departPos="5.10" departSpeed="0.00" departDelay="0.00" arrival="729.00" arrivalLane="E86_0" arrivalPos="183.31" arrivalSpeed="8.16" duration="259.00" routeLength="1507.09" waitingTime="6.00" waitingCount="2" stopTime="40.00" timeLoss="62.02" rerouteNo="4" devices="tripinfo_carflow.47" vType="car" speedFactor="0.90" vaporized=""/>
    <tripinfo id="carflow.40" depart="400.00" departLane="-E85_0" departPos="5.10" departSpeed="0.00" departDelay="0.00" arrival="734.00" arrivalLane="E86_0" arrivalPos="183.31" arrivalSpeed="8.79" duration="334.00" routeLength="2183.77" waitingTime="3.00" waitingCount="2" stopTime="40.00" timeLoss="70.87" rerouteNo="4" devices="tripinfo_carflow.40" vType="car" speedFactor="1.03" vaporized=""/>
    <tripinfo id="carflow.42" depart="420.00" departLane="-E85_0" departPos="5.10" departSpeed="0.00" departDelay="0.00" arrival="747.00" arrivalLane="E86_0" arrivalPos="183.31" arrivalSpeed="8.14" duration="327.00" routeLength="2173.42" waitingTime="0.00" waitingCount="0" stopTime="40.00" timeLoss="65.88" rerouteNo="6" devices="tripinfo_carflow.42" vType="car" speedFactor="1.09" vaporized=""/>
    <tripinfo id="carflow.44" depart="440.00" departLane="-E85_0" departPos="5.10" departSpeed="0.00" departDelay="0.00" arrival="765.00" arrivalLane="E86_0" arrivalPos="183.31" arrivalSpeed="9.79" duration="325.00" routeLength="2155.41" waitingTime="2.00" waitingCount="2" stopTime="40.00" timeLoss="66.15" rerouteNo="5" devices="tripinfo_carflow.44" vType="car" speedFactor="1.04" vaporized=""/>
    <tripinfo id="carflow.45" depart="450.00" departLane="-E85_0" departPos="5.10" departSpeed="0.00" departDelay="0.00" arrival="776.00" arrivalLane="E86_0" arrivalPos="183.31" arrivalSpeed="7.71" duration="326.00" routeLength="2160.14" waitingTime="3.00" waitingCount="1" stopTime="40.00" timeLoss="66.64" rerouteNo="3" devices="tripinfo_carflow.45" vType="car" speedFactor="1.09" vaporized=""/>
</tripinfos>
