<?xml version="1.0" encoding="UTF-8"?>

<!-- generated on 2024-09-17 10:44:43 by Eclipse SUMO GUI Version v1_20_0+2013-dea7f8276dd
<sumoConfiguration xmlns:xsi="http://www.w3.org/2001/XMLSchema-instance" xsi:noNamespaceSchemaLocation="http://sumo.dlr.de/xsd/sumoConfiguration.xsd">

    <input>
        <net-file value="parking_on_off_road.net.xml"/>
        <route-files value="parking_on_off_road.rou.xml"/>
        <additional-files value="parking_on_off_road.add.xml"/>
    </input>

    <output>
        <tripinfo-output value="tripinfo-xml"/>
    </output>

    <traci_server>
        <remote-port value="47919"/>
    </traci_server>

</sumoConfiguration>
-->

<tripinfos xmlns:xsi="http://www.w3.org/2001/XMLSchema-instance" xsi:noNamespaceSchemaLocation="http://sumo.dlr.de/xsd/tripinfo_file.xsd">
    <tripinfo id="carflow.1" depart="3.00" departLane="-E2_0" departPos="5.10" departSpeed="0.00" departDelay="1.00" arrival="75.00" arrivalLane="E1_0" arrivalPos="43.82" arrivalSpeed="8.36" duration="72.00" routeLength="474.62" waitingTime="0.00" waitingCount="0" stopTime="0.00" timeLoss="20.55" rerouteNo="6" devices="tripinfo_carflow.1" vType="car" speedFactor="0.94" vaporized=""/>
    <tripinfo id="carflow.4" depart="16.00" departLane="-E2_0" departPos="5.10" departSpeed="0.00" departDelay="8.00" arrival="105.00" arrivalLane="E1_0" arrivalPos="43.82" arrivalSpeed="8.87" duration="89.00" routeLength="439.15" waitingTime="19.00" waitingCount="2" stopTime="0.00" timeLoss="42.59" rerouteNo="4" devices="tripinfo_carflow.4" vType="car" speedFactor="1.03" vaporized=""/>
    <tripinfo id="carflow.9" depart="35.00" departLane="-E2_0" departPos="5.10" departSpeed="0.00" departDelay="17.00" arrival="109.00" arrivalLane="E1_0" arrivalPos="43.82" arrivalSpeed="7.89" duration="74.00" routeLength="439.15" waitingTime="0.00" waitingCount="0" stopTime="0.00" timeLoss="25.68" rerouteNo="5" devices="tripinfo_carflow.9" vType="car" speedFactor="0.86" vaporized=""/>
    <tripinfo id="carflow.0" depart="0.00" departLane="-E2_0" departPos="5.10" departSpeed="0.00" departDelay="0.00" arrival="120.00" arrivalLane="E1_0" arrivalPos="43.82" arrivalSpeed="8.37" duration="120.00" routeLength="439.15" waitingTime="5.00" waitingCount="3" stopTime="40.00" timeLoss="33.82" rerouteNo="3" devices="tripinfo_carflow.0" vType="car" speedFactor="1.06" vaporized=""/>
    <tripinfo id="carflow.3" depart="12.00" departLane="-E2_0" departPos="5.10" departSpeed="0.00" departDelay="6.00" arrival="133.00" arrivalLane="E1_0" arrivalPos="43.82" arrivalSpeed="7.87" duration="121.00" routeLength="439.15" waitingTime="3.00" waitingCount="2" stopTime="40.00" timeLoss="34.78" rerouteNo="3" devices="tripinfo_carflow.3" vType="car" speedFactor="1.08" vaporized=""/>
    <tripinfo id="carflow.2" depart="8.00" departLane="-E2_0" departPos="5.10" departSpeed="0.00" departDelay="4.00" arrival="141.00" arrivalLane="E1_0" arrivalPos="43.82" arrivalSpeed="8.58" duration="133.00" routeLength="405.71" waitingTime="27.00" waitingCount="2" stopTime="40.00" timeLoss="51.12" rerouteNo="2" devices="tripinfo_carflow.2" vType="car" speedFactor="1.01" vaporized=""/>
    <tripinfo id="carflow.5" depart="20.00" departLane="-E2_0" departPos="5.10" departSpeed="0.00" departDelay="10.00" arrival="144.00" arrivalLane="E1_0" arrivalPos="43.82" arrivalSpeed="8.17" duration="124.00" routeLength="491.71" waitingTime="0.00" waitingCount="0" stopTime="40.00" timeLoss="31.63" rerouteNo="2" devices="tripinfo_carflow.5" vType="car" speedFactor="0.83" vaporized=""/>
    <tripinfo id="carflow.7" depart="29.00" departLane="-E2_0" departPos="5.10" departSpeed="0.00" departDelay="15.00" arrival="193.00" arrivalLane="E1_0" arrivalPos="43.82" arrivalSpeed="8.97" duration="164.00" routeLength="592.71" waitingTime="20.00" waitingCount="1" stopTime="40.00" timeLoss="62.02" rerouteNo="2" devices="tripinfo_carflow.7" vType="car" speedFactor="0.89" vaporized=""/>
    <tripinfo id="carflow.27" depart="99.00" departLane="-E2_0" departPos="5.10" departSpeed="0.00" departDelay="45.00" arrival="195.00" arrivalLane="E1_0" arrivalPos="43.82" arrivalSpeed="9.58" duration="96.00" routeLength="439.15" waitingTime="12.00" waitingCount="2" stopTime="0.00" timeLoss="48.70" rerouteNo="4" devices="tripinfo_carflow.27" vType="car" speedFactor="0.95" vaporized=""/>
    <tripinfo id="carflow.17" depart="65.00" departLane="-E2_0" departPos="5.10" departSpeed="0.00" departDelay="31.00" arrival="198.00" arrivalLane="E1_0" arrivalPos="43.82" arrivalSpeed="8.40" duration="133.00" routeLength="439.15" waitingTime="11.00" waitingCount="2" stopTime="43.00" timeLoss="42.63" rerouteNo="3" devices="tripinfo_carflow.17" vType="car" speedFactor="0.94" vaporized=""/>
    <tripinfo id="carflow.22" depart="82.00" departLane="-E2_0" departPos="5.10" departSpeed="0.00" departDelay="38.00" arrival="208.00" arrivalLane="E1_0" arrivalPos="43.82" arrivalSpeed="8.50" duration="126.00" routeLength="439.15" waitingTime="4.00" waitingCount="1" stopTime="42.00" timeLoss="37.06" rerouteNo="3" devices="tripinfo_carflow.22" vType="car" speedFactor="0.97" vaporized=""/>
    <tripinfo id="carflow.13" depart="50.00" departLane="-E2_0" departPos="5.10" departSpeed="0.00" departDelay="24.00" arrival="213.00" arrivalLane="E1_0" arrivalPos="43.82" arrivalSpeed="9.60" duration="163.00" routeLength="474.62" waitingTime="86.00" waitingCount="3" stopTime="0.00" timeLoss="113.49" rerouteNo="3" devices="tripinfo_carflow.13" vType="car" speedFactor="1.12" vaporized=""/>
    <tripinfo id="carflow.23" depart="86.00" departLane="-E2_0" departPos="5.10" departSpeed="0.00" departDelay="40.00" arrival="221.00" arrivalLane="E1_0" arrivalPos="43.82" arrivalSpeed="8.29" duration="135.00" routeLength="592.71" waitingTime="0.00" waitingCount="0" stopTime="40.00" timeLoss="33.08" rerouteNo="2" devices="tripinfo_carflow.23" vType="car" speedFactor="0.89" vaporized=""/>
    <tripinfo id="carflow.10" depart="39.00" departLane="-E2_0" departPos="5.10" departSpeed="0.00" departDelay="19.00" arrival="224.00" arrivalLane="E1_0" arrivalPos="43.82" arrivalSpeed="7.51" duration="185.00" routeLength="405.71" waitingTime="77.00" waitingCount="2" stopTime="46.00" timeLoss="97.03" rerouteNo="2" devices="tripinfo_carflow.10" vType="car" speedFactor="1.09" vaporized=""/>
    <tripinfo id="carflow.6" depart="25.00" departLane="-E2_0" departPos="5.10" departSpeed="0.00" departDelay="13.00" arrival="230.00" arrivalLane="E1_0" arrivalPos="43.82" arrivalSpeed="7.84" duration="205.00" routeLength="504.26" waitingTime="75.00" waitingCount="6" stopTime="40.00" timeLoss="113.31" rerouteNo="2" devices="tripinfo_carflow.6" vType="car" speedFactor="1.05" vaporized=""/>
    <tripinfo id="carflow.19" depart="71.00" departLane="-E2_0" departPos="5.10" departSpeed="0.00" departDelay="33.00" arrival="233.00" arrivalLane="E1_0" arrivalPos="43.82" arrivalSpeed="9.58" duration="162.00" routeLength="405.71" waitingTime="55.00" waitingCount="2" stopTime="40.00" timeLoss="80.38" rerouteNo="3" devices="tripinfo_carflow.19" vType="car" speedFactor="1.16" vaporized=""/>
    <tripinfo id="carflow.11" depart="42.00" departLane="-E2_0" departPos="5.10" departSpeed="0.00" departDelay="20.00" arrival="238.00" arrivalLane="E1_0" arrivalPos="43.82" arrivalSpeed="9.52" duration="196.00" routeLength="487.09" waitingTime="60.00" waitingCount="5" stopTime="43.00" timeLoss="101.74" rerouteNo="5" devices="tripinfo_carflow.11" vType="car" speedFactor="1.03" vaporized=""/>
    <tripinfo id="carflow.26" depart="96.00" departLane="-E2_0" departPos="5.10" departSpeed="0.00" departDelay="44.00" arrival="242.00" arrivalLane="E1_0" arrivalPos="43.82" arrivalSpeed="9.89" duration="146.00" routeLength="583.95" waitingTime="38.00" waitingCount="2" stopTime="0.00" timeLoss="82.72" rerouteNo="7" devices="tripinfo_carflow.26" vType="car" speedFactor="0.92" vaporized=""/>
    <tripinfo id="carflow.8" depart="32.00" departLane="-E2_0" departPos="5.10" departSpeed="0.00" departDelay="16.00" arrival="251.00" arrivalLane="E1_0" arrivalPos="43.82" arrivalSpeed="8.81" duration="219.00" routeLength="569.28" waitingTime="56.00" waitingCount="3" stopTime="40.00" timeLoss="117.63" rerouteNo="5" devices="tripinfo_carflow.8" vType="car" speedFactor="0.94" vaporized=""/>
    <tripinfo id="carflow.15" depart="59.00" departLane="-E2_0" departPos="5.10" departSpeed="0.00" departDelay="29.00" arrival="254.00" arrivalLane="E1_0" arrivalPos="43.82" arrivalSpeed="9.71" duration="195.00" routeLength="819.82" waitingTime="4.00" waitingCount="1" stopTime="40.00" timeLoss="67.10" rerouteNo="10" devices="tripinfo_carflow.15" vType="car" speedFactor="0.93" vaporized=""/>
    <tripinfo id="carflow.25" depart="93.00" departLane="-E2_0" departPos="5.10" departSpeed="0.00" departDelay="43.00" arrival="267.00" arrivalLane="E1_0" arrivalPos="43.82" arrivalSpeed="8.57" duration="174.00" routeLength="338.41" waitingTime="56.00" waitingCount="6" stopTime="89.00" timeLoss="47.44" rerouteNo="3" devices="tripinfo_carflow.25" vType="car" speedFactor="0.87" vaporized=""/>
    <tripinfo id="carflow.34" depart="123.00" departLane="-E2_0" departPos="5.10" departSpeed="0.00" departDelay="55.00" arrival="269.00" arrivalLane="E1_0" arrivalPos="43.82" arrivalSpeed="9.85" duration="146.00" routeLength="936.44" waitingTime="0.00" waitingCount="0" stopTime="0.00" timeLoss="49.44" rerouteNo="10" devices="tripinfo_carflow.34" vType="car" speedFactor="0.99" vaporized=""/>
    <tripinfo id="carflow.33" depart="120.00" departLane="-E2_0" departPos="5.10" departSpeed="0.00" departDelay="54.00" arrival="274.00" arrivalLane="E1_0" arrivalPos="43.82" arrivalSpeed="8.32" duration="154.00" routeLength="646.67" waitingTime="2.00" waitingCount="1" stopTime="40.00" timeLoss="46.38" rerouteNo="7" devices="tripinfo_carflow.33" vType="car" speedFactor="1.17" vaporized=""/>
    <tripinfo id="carflow.12" depart="46.00" departLane="-E2_0" departPos="5.10" departSpeed="0.00" departDelay="22.00" arrival="279.00" arrivalLane="E1_0" arrivalPos="43.82" arrivalSpeed="8.88" duration="233.00" routeLength="453.66" waitingTime="81.00" waitingCount="8" stopTime="40.00" timeLoss="146.10" rerouteNo="3" devices="tripinfo_carflow.12" vType="car" speedFactor="1.05" vaporized=""/>
    <tripinfo id="carflow.41" depart="150.00" departLane="-E2_0" departPos="5.10" departSpeed="0.00" departDelay="68.00" arrival="286.00" arrivalLane="E1_0" arrivalPos="43.82" arrivalSpeed="8.48" duration="136.00" routeLength="592.71" waitingTime="1.00" waitingCount="1" stopTime="40.00" timeLoss="34.78" rerouteNo="4" devices="tripinfo_carflow.41" vType="car" speedFactor="0.96" vaporized=""/>
    <tripinfo id="carflow.21" depart="79.00" departLane="-E2_0" departPos="5.10" departSpeed="0.00" departDelay="37.00" arrival="289.00" arrivalLane="E1_0" arrivalPos="43.82" arrivalSpeed="9.86" duration="210.00" routeLength="491.71" waitingTime="58.00" waitingCount="9" stopTime="40.00" timeLoss="118.45" rerouteNo="2" devices="tripinfo_carflow.21" vType="car" speedFactor="1.01" vaporized=""/>
    <tripinfo id="carflow.18" depart="68.00" departLane="-E2_0" departPos="5.10" departSpeed="0.00" departDelay="32.00" arrival="292.00" arrivalLane="E1_0" arrivalPos="43.82" arrivalSpeed="9.05" duration="224.00" routeLength="504.26" waitingTime="53.00" waitingCount="8" stopTime="40.00" timeLoss="131.41" rerouteNo="2" devices="tripinfo_carflow.18" vType="car" speedFactor="0.94" vaporized=""/>
    <tripinfo id="carflow.20" depart="76.00" departLane="-E2_0" departPos="5.10" departSpeed="0.00" departDelay="36.00" arrival="296.00" arrivalLane="E1_0" arrivalPos="43.82" arrivalSpeed="9.53" duration="220.00" routeLength="504.26" waitingTime="61.00" waitingCount="9" stopTime="48.00" timeLoss="119.53" rerouteNo="5" devices="tripinfo_carflow.20" vType="car" speedFactor="1.02" vaporized=""/>
    <tripinfo id="carflow.16" depart="62.00" departLane="-E2_0" departPos="5.10" departSpeed="0.00" departDelay="30.00" arrival="299.00" arrivalLane="E1_0" arrivalPos="43.82" arrivalSpeed="8.14" duration="237.00" routeLength="588.94" waitingTime="74.00" waitingCount="5" stopTime="48.00" timeLoss="127.55" rerouteNo="5" devices="tripinfo_carflow.16" vType="car" speedFactor="0.88" vaporized=""/>
    <tripinfo id="carflow.38" depart="138.00" departLane="-E2_0" departPos="5.10" departSpeed="0.00" departDelay="62.00" arrival="304.00" arrivalLane="E1_0" arrivalPos="43.82" arrivalSpeed="8.77" duration="166.00" routeLength="354.31" waitingTime="26.00" waitingCount="8" stopTime="40.00" timeLoss="88.79" rerouteNo="3" devices="tripinfo_carflow.38" vType="car" speedFactor="1.10" vaporized=""/>
    <tripinfo id="carflow.14" depart="54.00" departLane="-E2_0" departPos="5.10" departSpeed="0.00" departDelay="26.00" arrival="312.00" arrivalLane="E1_0" arrivalPos="43.82" arrivalSpeed="8.32" duration="258.00" routeLength="793.20" waitingTime="78.00" waitingCount="6" stopTime="40.00" timeLoss="134.84" rerouteNo="9" devices="tripinfo_carflow.14" vType="car" speedFactor="0.99" vaporized=""/>
    <tripinfo id="carflow.46" depart="168.00" departLane="-E2_0" departPos="5.10" departSpeed="0.00" departDelay="76.00" arrival="316.00" arrivalLane="E1_0" arrivalPos="43.82" arrivalSpeed="7.86" duration="148.00" routeLength="584.76" waitingTime="3.00" waitingCount="2" stopTime="40.00" timeLoss="47.23" rerouteNo="5" devices="tripinfo_carflow.46" vType="car" speedFactor="1.00" vaporized=""/>
    <tripinfo id="carflow.35" depart="126.00" departLane="-E2_0" departPos="5.10" departSpeed="0.00" departDelay="56.00" arrival="319.00" arrivalLane="E1_0" arrivalPos="43.82" arrivalSpeed="7.95" duration="193.00" routeLength="491.71" waitingTime="25.00" waitingCount="9" stopTime="40.00" timeLoss="101.95" rerouteNo="3" devices="tripinfo_carflow.35" vType="car" speedFactor="1.02" vaporized=""/>
    <tripinfo id="carflow.47" depart="171.00" departLane="-E2_0" departPos="5.10" departSpeed="0.00" departDelay="77.00" arrival="325.00" arrivalLane="E1_0" arrivalPos="43.82" arrivalSpeed="8.08" duration="154.00" routeLength="405.71" waitingTime="24.00" waitingCount="2" stopTime="40.00" timeLoss="71.98" rerouteNo="2" devices="tripinfo_carflow.47" vType="car" speedFactor="0.90" vaporized=""/>
    <tripinfo id="carflow.39" depart="142.00" departLane="-E2_0" departPos="5.10" departSpeed="0.00" departDelay="64.00" arrival="327.00" arrivalLane="E1_0" arrivalPos="43.82" arrivalSpeed="8.90" duration="185.00" routeLength="504.26" waitingTime="27.00" waitingCount="6" stopTime="40.00" timeLoss="92.39" rerouteNo="2" devices="tripinfo_carflow.39" vType="car" speedFactor="0.90" vaporized=""/>
    <tripinfo id="carflow.42" depart="154.00" departLane="-E2_0" departPos="5.10" departSpeed="0.00" departDelay="70.00" arrival="331.00" arrivalLane="E1_0" arrivalPos="43.82" arrivalSpeed="8.44" duration="177.00" routeLength="504.26" waitingTime="10.00" waitingCount="1" stopTime="40.00" timeLoss="85.24" rerouteNo="5" devices="tripinfo_carflow.42" vType="car" speedFactor="1.09" vaporized=""/>
    <tripinfo id="carflow.30" depart="109.00" departLane="-E2_0" departPos="5.10" departSpeed="0.00" departDelay="49.00" arrival="334.00" arrivalLane="E1_0" arrivalPos="43.82" arrivalSpeed="7.99" duration="225.00" routeLength="931.69" waitingTime="5.00" waitingCount="3" stopTime="43.00" timeLoss="85.80" rerouteNo="7" devices="tripinfo_carflow.30" vType="car" speedFactor="1.18" vaporized=""/>
    <tripinfo id="carflow.37" depart="134.00" departLane="-E2_0" departPos="5.10" departSpeed="0.00" departDelay="60.00" arrival="337.00" arrivalLane="E1_0" arrivalPos="43.82" arrivalSpeed="8.63" duration="203.00" routeLength="491.71" waitingTime="52.00" waitingCount="5" stopTime="40.00" timeLoss="112.99" rerouteNo="2" devices="tripinfo_carflow.37" vType="car" speedFactor="1.18" vaporized=""/>
    <tripinfo id="carflow.48" depart="174.00" departLane="-E2_0" departPos="5.10" departSpeed="0.00" departDelay="78.00" arrival="353.00" arrivalLane="E1_0" arrivalPos="43.82" arrivalSpeed="8.01" duration="179.00" routeLength="692.46" waitingTime="13.00" waitingCount="4" stopTime="40.00" timeLoss="62.69" rerouteNo="9" devices="tripinfo_carflow.48" vType="car" speedFactor="0.88" vaporized=""/>
    <tripinfo id="carflow.44" depart="161.00" departLane="-E2_0" departPos="5.10" departSpeed="0.00" departDelay="73.00" arrival="356.00" arrivalLane="E1_0" arrivalPos="43.82" arrivalSpeed="9.79" duration="195.00" routeLength="778.13" waitingTime="5.00" waitingCount="3" stopTime="40.00" timeLoss="73.71" rerouteNo="6" devices="tripinfo_carflow.44" vType="car" speedFactor="1.04" vaporized=""/>
    <tripinfo id="carflow.36" depart="129.00" departLane="-E2_0" departPos="5.10" departSpeed="0.00" departDelay="57.00" arrival="359.00" arrivalLane="E1_0" arrivalPos="43.82" arrivalSpeed="7.54" duration="230.00" routeLength="958.03" waitingTime="25.00" waitingCount="4" stopTime="40.00" timeLoss="90.31" rerouteNo="9" devices="tripinfo_carflow.36" vType="car" speedFactor="0.97" vaporized=""/>
    <tripinfo id="carflow.24" depart="89.00" departLane="-E2_0" departPos="5.10" departSpeed="0.00" departDelay="41.00" arrival="365.00" arrivalLane="E1_0" arrivalPos="43.82" arrivalSpeed="9.40" duration="276.00" routeLength="732.79" waitingTime="128.00" waitingCount="4" stopTime="0.00" timeLoss="197.68" rerouteNo="8" devices="tripinfo_carflow.24" vType="car" speedFactor="0.83" vaporized=""/>
    <tripinfo id="carflow.49" depart="177.00" departLane="-E2_0" departPos="5.10" departSpeed="0.00" departDelay="79.00" arrival="367.00" arrivalLane="E1_0" arrivalPos="43.82" arrivalSpeed="9.09" duration="190.00" routeLength="491.71" waitingTime="45.00" waitingCount="3" stopTime="40.00" timeLoss="97.86" rerouteNo="3" devices="tripinfo_carflow.49" vType="car" speedFactor="0.85" vaporized=""/>
    <tripinfo id="carflow.45" depart="165.00" departLane="-E2_0" departPos="5.10" departSpeed="0.00" departDelay="75.00" arrival="371.00" arrivalLane="E1_0" arrivalPos="43.82" arrivalSpeed="8.21" duration="206.00" routeLength="354.31" waitingTime="64.00" waitingCount="6" stopTime="40.00" timeLoss="129.01" rerouteNo="3" devices="tripinfo_carflow.45" vType="car" speedFactor="1.09" vaporized=""/>
    <tripinfo id="carflow.43" depart="158.00" departLane="-E2_0" departPos="5.10" departSpeed="0.00" departDelay="72.00" arrival="375.00" arrivalLane="E1_0" arrivalPos="43.82" arrivalSpeed="9.99" duration="217.00" routeLength="453.66" waitingTime="64.00" waitingCount="7" stopTime="40.00" timeLoss="129.75" rerouteNo="2" devices="tripinfo_carflow.43" vType="car" speedFactor="1.04" vaporized=""/>
    <tripinfo id="carflow.40" depart="147.00" departLane="-E2_0" departPos="5.10" departSpeed="0.00" departDelay="67.00" arrival="379.00" arrivalLane="E1_0" arrivalPos="43.82" arrivalSpeed="7.89" duration="232.00" routeLength="588.13" waitingTime="64.00" waitingCount="6" stopTime="40.00" timeLoss="130.13" rerouteNo="8" devices="tripinfo_carflow.40" vType="car" speedFactor="1.03" vaporized=""/>
    <tripinfo id="carflow.29" depart="106.00" departLane="-E2_0" departPos="5.10" departSpeed="0.00" departDelay="48.00" arrival="383.00" arrivalLane="E1_0" arrivalPos="43.82" arrivalSpeed="7.59" duration="277.00" routeLength="824.57" waitingTime="59.00" waitingCount="10" stopTime="40.00" timeLoss="150.37" rerouteNo="6" devices="tripinfo_carflow.29" vType="car" speedFactor="0.93" vaporized=""/>
    <tripinfo id="carflow.32" depart="116.00" departLane="-E2_0" departPos="5.10" departSpeed="0.00" departDelay="52.00" arrival="386.00" arrivalLane="E1_0" arrivalPos="43.82" arrivalSpeed="7.71" duration="270.00" routeLength="491.71" waitingTime="140.00" waitingCount="1" stopTime="179.00" timeLoss="40.44" rerouteNo="4" devices="tripinfo_carflow.32" vType="car" speedFactor="1.01" vaporized=""/>
    <tripinfo id="carflow.28" depart="103.00" departLane="-E2_0" departPos="5.10" departSpeed="0.00" departDelay="47.00" arrival="391.00" arrivalLane="E1_0" arrivalPos="43.82" arrivalSpeed="8.83" duration="288.00" routeLength="801.21" waitingTime="62.00" waitingCount="7" stopTime="43.00" timeLoss="162.56" rerouteNo="11" devices="tripinfo_carflow.28" vType="car" speedFactor="1.13" vaporized=""/>
    <tripinfo id="carflow.31" depart="113.00" departLane="-E2_0" departPos="5.10" departSpeed="0.00" departDelay="51.00" arrival="432.00" arrivalLane="E1_0" arrivalPos="43.82" arrivalSpeed="7.97" duration="319.00" routeLength="953.79" waitingTime="105.00" waitingCount="5" stopTime="40.00" timeLoss="181.65" rerouteNo="10" devices="tripinfo_carflow.31" vType="car" speedFactor="1.15" vaporized=""/>
</tripinfos>
