<?xml version="1.0" encoding="UTF-8"?>

<!-- generated on 2024-07-24 15:59:48 by Eclipse SUMO GUI Version 1.15.0
<configuration xmlns:xsi="http://www.w3.org/2001/XMLSchema-instance" xsi:noNamespaceSchemaLocation="http://sumo.dlr.de/xsd/sumoConfiguration.xsd">

    <input>
        <net-file value="parking_on_off_road.net.xml"/>
        <route-files value="parking_on_off_road.rou.xml"/>
        <additional-files value="parking_on_off_road.add.xml"/>
    </input>

    <output>
        <tripinfo-output value="tripinfo-xml"/>
    </output>

    <traci_server>
        <remote-port value="36165"/>
    </traci_server>

</configuration>
-->

<tripinfos xmlns:xsi="http://www.w3.org/2001/XMLSchema-instance" xsi:noNamespaceSchemaLocation="http://sumo.dlr.de/xsd/tripinfo_file.xsd">
    <tripinfo id="carflow.9" depart="35.00" departLane="-E2_0" departPos="5.10" departSpeed="0.00" departDelay="35.00" arrival="60.00" arrivalLane="E1_0" arrivalPos="43.82" arrivalSpeed="8.36" duration="25.00" routeLength="120.57" waitingTime="0.00" waitingCount="0" stopTime="0.00" timeLoss="10.90" rerouteNo="2" devices="tripinfo_carflow.9" vType="car" speedFactor="0.86" vaporized=""/>
    <tripinfo id="carflow.15" depart="60.00" departLane="-E2_0" departPos="5.10" departSpeed="0.00" departDelay="60.00" arrival="82.00" arrivalLane="E1_0" arrivalPos="43.82" arrivalSpeed="9.11" duration="22.00" routeLength="120.57" waitingTime="0.00" waitingCount="0" stopTime="0.00" timeLoss="8.19" rerouteNo="2" devices="tripinfo_carflow.15" vType="car" speedFactor="0.93" vaporized=""/>
    <tripinfo id="carflow.20" depart="77.00" departLane="-E2_0" departPos="5.10" departSpeed="0.00" departDelay="77.00" arrival="98.00" arrivalLane="E1_0" arrivalPos="43.82" arrivalSpeed="8.49" duration="21.00" routeLength="120.57" waitingTime="0.00" waitingCount="0" stopTime="0.00" timeLoss="7.38" rerouteNo="2" devices="tripinfo_carflow.20" vType="car" speedFactor="1.02" vaporized=""/>
    <tripinfo id="carflow.0" depart="0.00" departLane="-E2_0" departPos="5.10" departSpeed="0.00" departDelay="0.00" arrival="115.00" arrivalLane="E1_0" arrivalPos="43.82" arrivalSpeed="9.32" duration="115.00" routeLength="405.71" waitingTime="10.00" waitingCount="1" stopTime="49.00" timeLoss="24.13" rerouteNo="1" devices="tripinfo_carflow.0" vType="car" speedFactor="1.06" vaporized=""/>
    <tripinfo id="carflow.1" depart="3.00" departLane="-E2_0" departPos="5.10" departSpeed="0.00" departDelay="3.00" arrival="127.00" arrivalLane="E1_0" arrivalPos="43.82" arrivalSpeed="8.64" duration="124.00" routeLength="405.71" waitingTime="12.00" waitingCount="1" stopTime="52.00" timeLoss="29.79" rerouteNo="1" devices="tripinfo_carflow.1" vType="car" speedFactor="0.94" vaporized=""/>
    <tripinfo id="carflow.4" depart="16.00" departLane="-E2_0" departPos="5.10" departSpeed="0.00" departDelay="16.00" arrival="130.00" arrivalLane="E1_0" arrivalPos="43.82" arrivalSpeed="9.67" duration="114.00" routeLength="405.71" waitingTime="3.00" waitingCount="3" stopTime="40.00" timeLoss="31.79" rerouteNo="3" devices="tripinfo_carflow.4" vType="car" speedFactor="1.03" vaporized=""/>
    <tripinfo id="carflow.2" depart="8.00" departLane="-E2_0" departPos="5.10" departSpeed="0.00" departDelay="8.00" arrival="139.00" arrivalLane="E1_0" arrivalPos="43.82" arrivalSpeed="8.97" duration="131.00" routeLength="405.71" waitingTime="19.00" waitingCount="1" stopTime="56.00" timeLoss="33.64" rerouteNo="1" devices="tripinfo_carflow.2" vType="car" speedFactor="1.01" vaporized=""/>
    <tripinfo id="carflow.8" depart="32.00" departLane="-E2_0" departPos="5.10" departSpeed="0.00" departDelay="32.00" arrival="142.00" arrivalLane="E1_0" arrivalPos="43.82" arrivalSpeed="9.36" duration="110.00" routeLength="405.71" waitingTime="1.00" waitingCount="1" stopTime="40.00" timeLoss="27.60" rerouteNo="4" devices="tripinfo_carflow.8" vType="car" speedFactor="0.94" vaporized=""/>
    <tripinfo id="carflow.3" depart="12.00" departLane="-E2_0" departPos="5.10" departSpeed="0.00" departDelay="12.00" arrival="147.00" arrivalLane="E1_0" arrivalPos="43.82" arrivalSpeed="8.07" duration="135.00" routeLength="354.31" waitingTime="28.00" waitingCount="2" stopTime="40.00" timeLoss="58.04" rerouteNo="5" devices="tripinfo_carflow.3" vType="car" speedFactor="1.08" vaporized=""/>
    <tripinfo id="carflow.6" depart="25.00" departLane="-E2_0" departPos="5.10" departSpeed="0.00" departDelay="25.00" arrival="151.00" arrivalLane="E1_0" arrivalPos="43.82" arrivalSpeed="9.51" duration="126.00" routeLength="453.66" waitingTime="6.00" waitingCount="2" stopTime="40.00" timeLoss="38.54" rerouteNo="5" devices="tripinfo_carflow.6" vType="car" speedFactor="1.05" vaporized=""/>
    <tripinfo id="carflow.11" depart="42.00" departLane="-E2_0" departPos="5.10" departSpeed="0.00" departDelay="42.00" arrival="160.00" arrivalLane="E1_0" arrivalPos="43.82" arrivalSpeed="8.29" duration="118.00" routeLength="405.71" waitingTime="6.00" waitingCount="1" stopTime="46.00" timeLoss="29.76" rerouteNo="4" devices="tripinfo_carflow.11" vType="car" speedFactor="1.03" vaporized=""/>
    <tripinfo id="carflow.42" depart="158.00" departLane="-E2_0" departPos="5.10" departSpeed="0.00" departDelay="158.00" arrival="179.00" arrivalLane="E1_0" arrivalPos="43.82" arrivalSpeed="9.71" duration="21.00" routeLength="120.57" waitingTime="0.00" waitingCount="0" stopTime="0.00" timeLoss="7.49" rerouteNo="2" devices="tripinfo_carflow.42" vType="car" speedFactor="1.09" vaporized=""/>
    <tripinfo id="carflow.13" depart="51.00" departLane="-E2_0" departPos="5.10" departSpeed="0.00" departDelay="51.00" arrival="182.00" arrivalLane="E1_0" arrivalPos="43.82" arrivalSpeed="8.36" duration="131.00" routeLength="592.71" waitingTime="1.00" waitingCount="1" stopTime="40.00" timeLoss="30.67" rerouteNo="5" devices="tripinfo_carflow.13" vType="car" speedFactor="1.12" vaporized=""/>
    <tripinfo id="carflow.5" depart="20.00" departLane="-E2_0" departPos="5.10" departSpeed="0.00" departDelay="20.00" arrival="187.00" arrivalLane="E1_0" arrivalPos="43.82" arrivalSpeed="9.39" duration="167.00" routeLength="491.71" waitingTime="19.00" waitingCount="2" stopTime="40.00" timeLoss="74.58" rerouteNo="4" devices="tripinfo_carflow.5" vType="car" speedFactor="0.83" vaporized=""/>
    <tripinfo id="carflow.46" depart="171.00" departLane="-E2_0" departPos="5.10" departSpeed="0.00" departDelay="171.00" arrival="192.00" arrivalLane="E1_0" arrivalPos="43.82" arrivalSpeed="9.29" duration="21.00" routeLength="120.57" waitingTime="0.00" waitingCount="0" stopTime="0.00" timeLoss="7.59" rerouteNo="2" devices="tripinfo_carflow.46" vType="car" speedFactor="1.00" vaporized=""/>
    <tripinfo id="carflow.47" depart="175.00" departLane="-E2_0" departPos="5.10" departSpeed="0.00" departDelay="175.00" arrival="196.00" arrivalLane="E1_0" arrivalPos="43.82" arrivalSpeed="7.68" duration="21.00" routeLength="120.57" waitingTime="0.00" waitingCount="0" stopTime="0.00" timeLoss="7.48" rerouteNo="2" devices="tripinfo_carflow.47" vType="car" speedFactor="0.90" vaporized=""/>
    <tripinfo id="carflow.16" depart="63.00" departLane="-E2_0" departPos="5.10" departSpeed="0.00" departDelay="63.00" arrival="198.00" arrivalLane="E1_0" arrivalPos="43.82" arrivalSpeed="9.12" duration="135.00" routeLength="488.36" waitingTime="0.00" waitingCount="0" stopTime="40.00" timeLoss="42.30" rerouteNo="5" devices="tripinfo_carflow.16" vType="car" speedFactor="0.88" vaporized=""/>
    <tripinfo id="carflow.49" depart="181.00" departLane="-E2_0" departPos="5.10" departSpeed="0.00" departDelay="181.00" arrival="203.00" arrivalLane="E1_0" arrivalPos="43.82" arrivalSpeed="7.90" duration="22.00" routeLength="120.57" waitingTime="0.00" waitingCount="0" stopTime="0.00" timeLoss="8.44" rerouteNo="2" devices="tripinfo_carflow.49" vType="car" speedFactor="0.85" vaporized=""/>
    <tripinfo id="carflow.51" depart="188.00" departLane="-E2_0" departPos="5.10" departSpeed="0.00" departDelay="188.00" arrival="208.00" arrivalLane="E1_0" arrivalPos="43.82" arrivalSpeed="7.52" duration="20.00" routeLength="120.57" waitingTime="0.00" waitingCount="0" stopTime="0.00" timeLoss="6.72" rerouteNo="2" devices="tripinfo_carflow.51" vType="car" speedFactor="1.17" vaporized=""/>
    <tripinfo id="carflow.10" depart="39.00" departLane="-E2_0" departPos="5.10" departSpeed="0.00" departDelay="39.00" arrival="213.00" arrivalLane="E1_0" arrivalPos="43.82" arrivalSpeed="8.93" duration="174.00" routeLength="491.71" waitingTime="39.00" waitingCount="4" stopTime="40.00" timeLoss="83.43" rerouteNo="4" devices="tripinfo_carflow.10" vType="car" speedFactor="1.09" vaporized=""/>
    <tripinfo id="carflow.54" depart="198.00" departLane="-E2_0" departPos="5.10" departSpeed="0.00" departDelay="198.00" arrival="217.00" arrivalLane="E1_0" arrivalPos="43.82" arrivalSpeed="9.89" duration="19.00" routeLength="120.57" waitingTime="0.00" waitingCount="0" stopTime="0.00" timeLoss="4.84" rerouteNo="2" devices="tripinfo_carflow.54" vType="car" speedFactor="1.00" vaporized=""/>
    <tripinfo id="carflow.19" depart="73.00" departLane="-E2_0" departPos="5.10" departSpeed="0.00" departDelay="73.00" arrival="219.00" arrivalLane="E1_0" arrivalPos="43.82" arrivalSpeed="9.77" duration="146.00" routeLength="354.31" waitingTime="31.00" waitingCount="6" stopTime="40.00" timeLoss="69.67" rerouteNo="5" devices="tripinfo_carflow.19" vType="car" speedFactor="1.16" vaporized=""/>
    <tripinfo id="carflow.14" depart="55.00" departLane="-E2_0" departPos="5.10" departSpeed="0.00" departDelay="55.00" arrival="228.00" arrivalLane="E1_0" arrivalPos="43.82" arrivalSpeed="9.02" duration="173.00" routeLength="405.71" waitingTime="37.00" waitingCount="4" stopTime="51.00" timeLoss="80.13" rerouteNo="1" devices="tripinfo_carflow.14" vType="car" speedFactor="0.99" vaporized=""/>
    <tripinfo id="carflow.36" depart="137.00" departLane="-E2_0" departPos="5.10" departSpeed="0.00" departDelay="137.00" arrival="241.00" arrivalLane="E1_0" arrivalPos="43.82" arrivalSpeed="8.30" duration="104.00" routeLength="338.41" waitingTime="1.00" waitingCount="1" stopTime="40.00" timeLoss="26.92" rerouteNo="6" devices="tripinfo_carflow.36" vType="car" speedFactor="0.97" vaporized=""/>
    <tripinfo id="carflow.27" depart="105.00" departLane="-E2_0" departPos="5.10" departSpeed="0.00" departDelay="105.00" arrival="246.00" arrivalLane="E1_0" arrivalPos="43.82" arrivalSpeed="8.84" duration="141.00" routeLength="592.71" waitingTime="3.00" waitingCount="1" stopTime="40.00" timeLoss="40.04" rerouteNo="5" devices="tripinfo_carflow.27" vType="car" speedFactor="0.95" vaporized=""/>
    <tripinfo id="carflow.28" depart="108.00" departLane="-E2_0" departPos="5.10" departSpeed="0.00" departDelay="108.00" arrival="251.00" arrivalLane="E1_0" arrivalPos="43.82" arrivalSpeed="9.24" duration="143.00" routeLength="592.71" waitingTime="3.00" waitingCount="2" stopTime="40.00" timeLoss="41.50" rerouteNo="7" devices="tripinfo_carflow.28" vType="car" speedFactor="1.13" vaporized=""/>
    <tripinfo id="carflow.40" depart="152.00" departLane="-E2_0" departPos="5.10" departSpeed="0.00" departDelay="152.00" arrival="255.00" arrivalLane="E1_0" arrivalPos="43.82" arrivalSpeed="8.58" duration="103.00" routeLength="338.41" waitingTime="0.00" waitingCount="0" stopTime="40.00" timeLoss="26.52" rerouteNo="5" devices="tripinfo_carflow.40" vType="car" speedFactor="1.03" vaporized=""/>
    <tripinfo id="carflow.17" depart="66.00" departLane="-E2_0" departPos="5.10" departSpeed="0.00" departDelay="66.00" arrival="260.00" arrivalLane="E1_0" arrivalPos="43.82" arrivalSpeed="8.20" duration="194.00" routeLength="405.71" waitingTime="58.00" waitingCount="6" stopTime="48.00" timeLoss="103.89" rerouteNo="1" devices="tripinfo_carflow.17" vType="car" speedFactor="0.94" vaporized=""/>
    <tripinfo id="carflow.21" depart="82.00" departLane="-E2_0" departPos="5.10" departSpeed="0.00" departDelay="82.00" arrival="263.00" arrivalLane="E1_0" arrivalPos="43.82" arrivalSpeed="9.08" duration="181.00" routeLength="405.71" waitingTime="44.00" waitingCount="5" stopTime="45.00" timeLoss="94.74" rerouteNo="1" devices="tripinfo_carflow.21" vType="car" speedFactor="1.01" vaporized=""/>
    <tripinfo id="carflow.68" depart="250.00" departLane="-E2_0" departPos="5.10" departSpeed="0.00" departDelay="250.00" arrival="271.00" arrivalLane="E1_0" arrivalPos="43.82" arrivalSpeed="8.90" duration="21.00" routeLength="120.57" waitingTime="0.00" waitingCount="0" stopTime="0.00" timeLoss="7.70" rerouteNo="2" devices="tripinfo_carflow.68" vType="car" speedFactor="1.04" vaporized=""/>
    <tripinfo id="carflow.18" depart="69.00" departLane="-E2_0" departPos="5.10" departSpeed="0.00" departDelay="69.00" arrival="276.00" arrivalLane="E1_0" arrivalPos="43.82" arrivalSpeed="7.98" duration="207.00" routeLength="474.62" waitingTime="128.00" waitingCount="3" stopTime="0.00" timeLoss="155.71" rerouteNo="7" devices="tripinfo_carflow.18" vType="car" speedFactor="0.94" vaporized=""/>
    <tripinfo id="carflow.34" depart="131.00" departLane="-E2_0" departPos="5.10" departSpeed="0.00" departDelay="131.00" arrival="281.00" arrivalLane="E1_0" arrivalPos="43.82" arrivalSpeed="7.79" duration="150.00" routeLength="587.69" waitingTime="2.00" waitingCount="2" stopTime="40.00" timeLoss="48.40" rerouteNo="6" devices="tripinfo_carflow.34" vType="car" speedFactor="0.99" vaporized=""/>
    <tripinfo id="carflow.26" depart="101.00" departLane="-E2_0" departPos="5.10" departSpeed="0.00" departDelay="101.00" arrival="285.00" arrivalLane="E1_0" arrivalPos="43.82" arrivalSpeed="8.48" duration="184.00" routeLength="405.71" waitingTime="39.00" waitingCount="8" stopTime="42.00" timeLoss="100.61" rerouteNo="4" devices="tripinfo_carflow.26" vType="car" speedFactor="0.92" vaporized=""/>
    <tripinfo id="carflow.43" depart="161.00" departLane="-E2_0" departPos="5.10" departSpeed="0.00" departDelay="161.00" arrival="295.00" arrivalLane="E1_0" arrivalPos="43.82" arrivalSpeed="8.47" duration="134.00" routeLength="592.71" waitingTime="1.00" waitingCount="1" stopTime="40.00" timeLoss="33.20" rerouteNo="5" devices="tripinfo_carflow.43" vType="car" speedFactor="1.04" vaporized=""/>
    <tripinfo id="carflow.76" depart="278.00" departLane="-E2_0" departPos="5.10" departSpeed="0.00" departDelay="278.00" arrival="298.00" arrivalLane="E1_0" arrivalPos="43.82" arrivalSpeed="9.58" duration="20.00" routeLength="120.57" waitingTime="0.00" waitingCount="0" stopTime="0.00" timeLoss="6.62" rerouteNo="2" devices="tripinfo_carflow.76" vType="car" speedFactor="1.03" vaporized=""/>
    <tripinfo id="carflow.31" depart="121.00" departLane="-E2_0" departPos="5.10" departSpeed="0.00" departDelay="121.00" arrival="305.00" arrivalLane="E1_0" arrivalPos="43.82" arrivalSpeed="7.86" duration="184.00" routeLength="405.71" waitingTime="40.00" waitingCount="6" stopTime="41.00" timeLoss="101.81" rerouteNo="1" devices="tripinfo_carflow.31" vType="car" speedFactor="1.15" vaporized=""/>
    <tripinfo id="carflow.77" depart="281.00" departLane="-E2_0" departPos="5.10" departSpeed="0.00" departDelay="281.00" arrival="310.00" arrivalLane="E1_0" arrivalPos="43.82" arrivalSpeed="7.82" duration="29.00" routeLength="120.57" waitingTime="0.00" waitingCount="0" stopTime="0.00" timeLoss="15.35" rerouteNo="2" devices="tripinfo_carflow.77" vType="car" speedFactor="0.98" vaporized=""/>
    <tripinfo id="carflow.33" depart="128.00" departLane="-E2_0" departPos="5.10" departSpeed="0.00" departDelay="128.00" arrival="315.00" arrivalLane="E1_0" arrivalPos="43.82" arrivalSpeed="9.98" duration="187.00" routeLength="405.71" waitingTime="40.00" waitingCount="8" stopTime="40.00" timeLoss="105.73" rerouteNo="2" devices="tripinfo_carflow.33" vType="car" speedFactor="1.17" vaporized=""/>
    <tripinfo id="carflow.32" depart="124.00" departLane="-E2_0" departPos="5.10" departSpeed="0.00" departDelay="124.00" arrival="318.00" arrivalLane="E1_0" arrivalPos="43.82" arrivalSpeed="7.51" duration="194.00" routeLength="405.71" waitingTime="35.00" waitingCount="11" stopTime="40.00" timeLoss="112.13" rerouteNo="4" devices="tripinfo_carflow.32" vType="car" speedFactor="1.01" vaporized=""/>
    <tripinfo id="carflow.81" depart="299.00" departLane="-E2_0" departPos="5.10" departSpeed="0.00" departDelay="299.00" arrival="321.00" arrivalLane="E1_0" arrivalPos="43.82" arrivalSpeed="8.62" duration="22.00" routeLength="120.57" waitingTime="0.00" waitingCount="0" stopTime="0.00" timeLoss="8.32" rerouteNo="2" devices="tripinfo_carflow.81" vType="car" speedFactor="1.00" vaporized=""/>
    <tripinfo id="carflow.83" depart="307.00" departLane="-E2_0" departPos="5.10" departSpeed="0.00" departDelay="307.00" arrival="328.00" arrivalLane="E1_0" arrivalPos="43.82" arrivalSpeed="9.49" duration="21.00" routeLength="120.57" waitingTime="0.00" waitingCount="0" stopTime="0.00" timeLoss="7.83" rerouteNo="2" devices="tripinfo_carflow.83" vType="car" speedFactor="0.97" vaporized=""/>
    <tripinfo id="carflow.29" depart="112.00" departLane="-E2_0" departPos="5.10" departSpeed="0.00" departDelay="112.00" arrival="332.00" arrivalLane="E1_0" arrivalPos="43.82" arrivalSpeed="9.73" duration="220.00" routeLength="700.24" waitingTime="88.00" waitingCount="3" stopTime="0.00" timeLoss="145.18" rerouteNo="2" devices="tripinfo_carflow.29" vType="car" speedFactor="0.93" vaporized=""/>
    <tripinfo id="carflow.84" depart="310.00" departLane="-E2_0" departPos="5.10" departSpeed="0.00" departDelay="310.00" arrival="336.00" arrivalLane="E1_0" arrivalPos="43.82" arrivalSpeed="7.56" duration="26.00" routeLength="120.57" waitingTime="0.00" waitingCount="0" stopTime="0.00" timeLoss="12.64" rerouteNo="2" devices="tripinfo_carflow.84" vType="car" speedFactor="1.15" vaporized=""/>
    <tripinfo id="carflow.64" depart="234.00" departLane="-E2_0" departPos="5.10" departSpeed="0.00" departDelay="234.00" arrival="338.00" arrivalLane="E1_0" arrivalPos="43.82" arrivalSpeed="9.82" duration="104.00" routeLength="338.41" waitingTime="2.00" waitingCount="2" stopTime="40.00" timeLoss="26.46" rerouteNo="5" devices="tripinfo_carflow.64" vType="car" speedFactor="0.94" vaporized=""/>
    <tripinfo id="carflow.89" depart="329.00" departLane="-E2_0" departPos="5.10" departSpeed="0.00" departDelay="329.00" arrival="350.00" arrivalLane="E1_0" arrivalPos="43.82" arrivalSpeed="9.63" duration="21.00" routeLength="120.57" waitingTime="0.00" waitingCount="0" stopTime="0.00" timeLoss="8.07" rerouteNo="2" devices="tripinfo_carflow.89" vType="car" speedFactor="1.02" vaporized=""/>
    <tripinfo id="carflow.59" depart="215.00" departLane="-E2_0" departPos="5.10" departSpeed="0.00" departDelay="215.00" arrival="354.00" arrivalLane="E1_0" arrivalPos="43.82" arrivalSpeed="9.90" duration="139.00" routeLength="592.71" waitingTime="1.00" waitingCount="1" stopTime="40.00" timeLoss="37.28" rerouteNo="5" devices="tripinfo_carflow.59" vType="car" speedFactor="0.97" vaporized=""/>
    <tripinfo id="carflow.67" depart="246.00" departLane="-E2_0" departPos="5.10" departSpeed="0.00" departDelay="246.00" arrival="356.00" arrivalLane="E1_0" arrivalPos="43.82" arrivalSpeed="9.36" duration="110.00" routeLength="338.41" waitingTime="2.00" waitingCount="2" stopTime="40.00" timeLoss="32.62" rerouteNo="6" devices="tripinfo_carflow.67" vType="car" speedFactor="0.91" vaporized=""/>
    <tripinfo id="carflow.23" depart="89.00" departLane="-E2_0" departPos="5.10" departSpeed="0.00" departDelay="89.00" arrival="364.00" arrivalLane="E1_0" arrivalPos="43.82" arrivalSpeed="7.59" duration="275.00" routeLength="354.31" waitingTime="104.00" waitingCount="11" stopTime="40.00" timeLoss="196.79" rerouteNo="6" devices="tripinfo_carflow.23" vType="car" speedFactor="0.89" vaporized=""/>
    <tripinfo id="carflow.30" depart="116.00" departLane="-E2_0" departPos="5.10" departSpeed="0.00" departDelay="116.00" arrival="367.00" arrivalLane="E1_0" arrivalPos="43.82" arrivalSpeed="7.97" duration="251.00" routeLength="603.98" waitingTime="61.00" waitingCount="10" stopTime="40.00" timeLoss="149.18" rerouteNo="6" devices="tripinfo_carflow.30" vType="car" speedFactor="1.18" vaporized=""/>
    <tripinfo id="carflow.35" depart="134.00" departLane="-E2_0" departPos="5.10" departSpeed="0.00" departDelay="134.00" arrival="370.00" arrivalLane="E1_0" arrivalPos="43.82" arrivalSpeed="9.98" duration="236.00" routeLength="405.71" waitingTime="68.00" waitingCount="13" stopTime="40.00" timeLoss="153.36" rerouteNo="1" devices="tripinfo_carflow.35" vType="car" speedFactor="1.02" vaporized=""/>
    <tripinfo id="carflow.22" depart="85.00" departLane="-E2_0" departPos="5.10" departSpeed="0.00" departDelay="85.00" arrival="374.00" arrivalLane="E1_0" arrivalPos="43.82" arrivalSpeed="8.47" duration="289.00" routeLength="491.71" waitingTime="106.00" waitingCount="15" stopTime="40.00" timeLoss="197.41" rerouteNo="2" devices="tripinfo_carflow.22" vType="car" speedFactor="0.97" vaporized=""/>
    <tripinfo id="carflow.44" depart="165.00" departLane="-E2_0" departPos="5.10" departSpeed="0.00" departDelay="165.00" arrival="378.00" arrivalLane="E1_0" arrivalPos="43.82" arrivalSpeed="9.61" duration="213.00" routeLength="405.71" waitingTime="76.00" waitingCount="6" stopTime="40.00" timeLoss="131.66" rerouteNo="4" devices="tripinfo_carflow.44" vType="car" speedFactor="1.04" vaporized=""/>
    <tripinfo id="carflow.61" depart="223.00" departLane="-E2_0" departPos="5.10" departSpeed="0.00" departDelay="223.00" arrival="382.00" arrivalLane="E1_0" arrivalPos="43.82" arrivalSpeed="9.23" duration="159.00" routeLength="405.71" waitingTime="64.00" waitingCount="6" stopTime="0.00" timeLoss="117.46" rerouteNo="4" devices="tripinfo_carflow.61" vType="car" speedFactor="1.12" vaporized=""/>
    <tripinfo id="carflow.12" depart="46.00" departLane="-E2_0" departPos="5.10" departSpeed="0.00" departDelay="46.00" arrival="397.00" arrivalLane="E1_0" arrivalPos="43.82" arrivalSpeed="9.16" duration="351.00" routeLength="733.22" waitingTime="139.00" waitingCount="13" stopTime="40.00" timeLoss="235.63" rerouteNo="7" devices="tripinfo_carflow.12" vType="car" speedFactor="1.05" vaporized=""/>
    <tripinfo id="carflow.48" depart="178.00" departLane="-E2_0" departPos="5.10" departSpeed="0.00" departDelay="178.00" arrival="400.00" arrivalLane="E1_0" arrivalPos="43.82" arrivalSpeed="9.80" duration="222.00" routeLength="405.71" waitingTime="76.00" waitingCount="5" stopTime="49.00" timeLoss="130.82" rerouteNo="1" devices="tripinfo_carflow.48" vType="car" speedFactor="0.88" vaporized=""/>
    <tripinfo id="carflow.52" depart="191.00" departLane="-E2_0" departPos="5.10" departSpeed="0.00" departDelay="191.00" arrival="405.00" arrivalLane="E1_0" arrivalPos="43.82" arrivalSpeed="9.57" duration="214.00" routeLength="405.71" waitingTime="67.00" waitingCount="4" stopTime="48.00" timeLoss="124.26" rerouteNo="1" devices="tripinfo_carflow.52" vType="car" speedFactor="1.02" vaporized=""/>
    <tripinfo id="carflow.53" depart="195.00" departLane="-E2_0" departPos="5.10" departSpeed="0.00" departDelay="195.00" arrival="411.00" arrivalLane="E1_0" arrivalPos="43.82" arrivalSpeed="8.20" duration="216.00" routeLength="405.71" waitingTime="66.00" waitingCount="10" stopTime="49.00" timeLoss="125.78" rerouteNo="1" devices="tripinfo_carflow.53" vType="car" speedFactor="1.10" vaporized=""/>
    <tripinfo id="carflow.65" depart="238.00" departLane="-E2_0" departPos="5.10" departSpeed="0.00" departDelay="238.00" arrival="415.00" arrivalLane="E1_0" arrivalPos="43.82" arrivalSpeed="9.36" duration="177.00" routeLength="405.71" waitingTime="34.00" waitingCount="3" stopTime="40.00" timeLoss="94.74" rerouteNo="1" devices="tripinfo_carflow.65" vType="car" speedFactor="0.88" vaporized=""/>
    <tripinfo id="carflow.70" depart="256.00" departLane="-E2_0" departPos="5.10" departSpeed="0.00" departDelay="256.00" arrival="418.00" arrivalLane="E1_0" arrivalPos="43.82" arrivalSpeed="8.65" duration="162.00" routeLength="405.71" waitingTime="26.00" waitingCount="3" stopTime="40.00" timeLoss="80.64" rerouteNo="1" devices="tripinfo_carflow.70" vType="car" speedFactor="1.02" vaporized=""/>
    <tripinfo id="carflow.24" depart="93.00" departLane="-E2_0" departPos="5.10" departSpeed="0.00" departDelay="93.00" arrival="424.00" arrivalLane="E1_0" arrivalPos="43.82" arrivalSpeed="8.14" duration="331.00" routeLength="491.71" waitingTime="159.00" waitingCount="6" stopTime="40.00" timeLoss="238.21" rerouteNo="4" devices="tripinfo_carflow.24" vType="car" speedFactor="0.83" vaporized=""/>
    <tripinfo id="carflow.71" depart="259.00" departLane="-E2_0" departPos="5.10" departSpeed="0.00" departDelay="259.00" arrival="427.00" arrivalLane="E1_0" arrivalPos="43.82" arrivalSpeed="9.68" duration="168.00" routeLength="405.71" waitingTime="24.00" waitingCount="4" stopTime="40.00" timeLoss="85.52" rerouteNo="1" devices="tripinfo_carflow.71" vType="car" speedFactor="0.97" vaporized=""/>
    <tripinfo id="carflow.57" depart="209.00" departLane="-E2_0" departPos="5.10" departSpeed="0.00" departDelay="209.00" arrival="430.00" arrivalLane="E1_0" arrivalPos="43.82" arrivalSpeed="8.62" duration="221.00" routeLength="603.98" waitingTime="44.00" waitingCount="4" stopTime="40.00" timeLoss="119.47" rerouteNo="6" devices="tripinfo_carflow.57" vType="car" speedFactor="1.14" vaporized=""/>
    <tripinfo id="carflow.25" depart="97.00" departLane="-E2_0" departPos="5.10" departSpeed="0.00" departDelay="97.00" arrival="433.00" arrivalLane="E1_0" arrivalPos="43.82" arrivalSpeed="9.83" duration="336.00" routeLength="453.66" waitingTime="166.00" waitingCount="12" stopTime="40.00" timeLoss="248.12" rerouteNo="7" devices="tripinfo_carflow.25" vType="car" speedFactor="0.87" vaporized=""/>
    <tripinfo id="carflow.82" depart="303.00" departLane="-E2_0" departPos="5.10" departSpeed="0.00" departDelay="303.00" arrival="441.00" arrivalLane="E1_0" arrivalPos="43.82" arrivalSpeed="8.50" duration="138.00" routeLength="588.09" waitingTime="2.00" waitingCount="1" stopTime="40.00" timeLoss="37.02" rerouteNo="7" devices="tripinfo_carflow.82" vType="car" speedFactor="1.02" vaporized=""/>
    <tripinfo id="carflow.41" depart="155.00" departLane="-E2_0" departPos="5.10" departSpeed="0.00" departDelay="155.00" arrival="444.00" arrivalLane="E1_0" arrivalPos="43.82" arrivalSpeed="8.83" duration="289.00" routeLength="405.71" waitingTime="166.00" waitingCount="8" stopTime="193.00" timeLoss="54.73" rerouteNo="5" devices="tripinfo_carflow.41" vType="car" speedFactor="0.96" vaporized=""/>
    <tripinfo id="carflow.39" depart="148.00" departLane="-E2_0" departPos="5.10" departSpeed="0.00" departDelay="148.00" arrival="450.00" arrivalLane="E1_0" arrivalPos="43.82" arrivalSpeed="9.83" duration="302.00" routeLength="487.09" waitingTime="136.00" waitingCount="10" stopTime="40.00" timeLoss="208.88" rerouteNo="6" devices="tripinfo_carflow.39" vType="car" speedFactor="0.90" vaporized=""/>
    <tripinfo id="carflow.62" depart="227.00" departLane="-E2_0" departPos="5.10" departSpeed="0.00" departDelay="227.00" arrival="455.00" arrivalLane="E1_0" arrivalPos="43.82" arrivalSpeed="8.27" duration="228.00" routeLength="488.36" waitingTime="91.00" waitingCount="4" stopTime="40.00" timeLoss="136.45" rerouteNo="5" devices="tripinfo_carflow.62" vType="car" speedFactor="1.02" vaporized=""/>
    <tripinfo id="carflow.38" depart="144.00" departLane="-E2_0" departPos="5.10" departSpeed="0.00" departDelay="144.00" arrival="458.00" arrivalLane="E1_0" arrivalPos="43.82" arrivalSpeed="8.12" duration="314.00" routeLength="354.31" waitingTime="148.00" waitingCount="8" stopTime="40.00" timeLoss="236.72" rerouteNo="5" devices="tripinfo_carflow.38" vType="car" speedFactor="1.10" vaporized=""/>
    <tripinfo id="carflow.58" depart="212.00" departLane="-E2_0" departPos="5.10" departSpeed="0.00" departDelay="212.00" arrival="460.00" arrivalLane="E1_0" arrivalPos="43.82" arrivalSpeed="8.89" duration="248.00" routeLength="405.71" waitingTime="128.00" waitingCount="3" stopTime="152.00" timeLoss="54.54" rerouteNo="4" devices="tripinfo_carflow.58" vType="car" speedFactor="1.02" vaporized=""/>
    <tripinfo id="carflow.78" depart="287.00" departLane="-E2_0" departPos="5.10" departSpeed="0.00" departDelay="287.00" arrival="472.00" arrivalLane="E1_0" arrivalPos="43.82" arrivalSpeed="9.39" duration="185.00" routeLength="405.71" waitingTime="35.00" waitingCount="3" stopTime="64.00" timeLoss="79.13" rerouteNo="1" devices="tripinfo_carflow.78" vType="car" speedFactor="1.01" vaporized=""/>
    <tripinfo id="carflow.85" depart="314.00" departLane="-E2_0" departPos="5.10" departSpeed="0.00" departDelay="314.00" arrival="476.00" arrivalLane="E1_0" arrivalPos="43.82" arrivalSpeed="8.79" duration="162.00" routeLength="405.71" waitingTime="14.00" waitingCount="4" stopTime="43.00" timeLoss="76.67" rerouteNo="1" devices="tripinfo_carflow.85" vType="car" speedFactor="0.98" vaporized=""/>
    <tripinfo id="carflow.87" depart="322.00" departLane="-E2_0" departPos="5.10" departSpeed="0.00" departDelay="322.00" arrival="480.00" arrivalLane="E1_0" arrivalPos="43.82" arrivalSpeed="7.69" duration="158.00" routeLength="405.71" waitingTime="6.00" waitingCount="3" stopTime="40.00" timeLoss="75.89" rerouteNo="1" devices="tripinfo_carflow.87" vType="car" speedFactor="1.04" vaporized=""/>
    <tripinfo id="carflow.98" depart="361.00" departLane="-E2_0" departPos="5.10" departSpeed="0.00" departDelay="361.00" arrival="483.00" arrivalLane="E1_0" arrivalPos="43.82" arrivalSpeed="8.02" duration="122.00" routeLength="405.71" waitingTime="1.00" waitingCount="1" stopTime="40.00" timeLoss="40.11" rerouteNo="1" devices="tripinfo_carflow.98" vType="car" speedFactor="1.12" vaporized=""/>