<?xml version="1.0" encoding="UTF-8"?>

<!-- generated on 2024-07-23 11:30:59 by Eclipse SUMO GUI Version 1.15.0
<configuration xmlns:xsi="http://www.w3.org/2001/XMLSchema-instance" xsi:noNamespaceSchemaLocation="http://sumo.dlr.de/xsd/sumoConfiguration.xsd">

    <input>
        <net-file value="parking_on_off_road.net.xml"/>
        <route-files value="parking_on_off_road.rou.xml"/>
        <additional-files value="parking_on_off_road.add.xml"/>
    </input>

    <output>
        <tripinfo-output value="tripinfo-xml"/>
    </output>

    <traci_server>
        <remote-port value="49799"/>
    </traci_server>

</configuration>
-->

<tripinfos xmlns:xsi="http://www.w3.org/2001/XMLSchema-instance" xsi:noNamespaceSchemaLocation="http://sumo.dlr.de/xsd/tripinfo_file.xsd">
    <tripinfo id="carflow.2" depart="8.00" departLane="-E2_0" departPos="5.10" departSpeed="0.00" departDelay="8.00" arrival="29.00" arrivalLane="E1_0" arrivalPos="43.82" arrivalSpeed="8.83" duration="21.00" routeLength="120.57" waitingTime="0.00" waitingCount="0" stopTime="0.00" timeLoss="8.01" rerouteNo="2" devices="tripinfo_carflow.2" vType="car" speedFactor="1.01" vaporized=""/>
    <tripinfo id="carflow.4" depart="16.00" departLane="-E2_0" departPos="5.10" departSpeed="0.00" departDelay="16.00" arrival="36.00" arrivalLane="E1_0" arrivalPos="43.82" arrivalSpeed="8.87" duration="20.00" routeLength="120.57" waitingTime="0.00" waitingCount="0" stopTime="0.00" timeLoss="6.90" rerouteNo="2" devices="tripinfo_carflow.4" vType="car" speedFactor="1.03" vaporized=""/>
    <tripinfo id="carflow.14" depart="52.00" departLane="-E2_0" departPos="5.10" departSpeed="0.00" departDelay="52.00" arrival="74.00" arrivalLane="E1_0" arrivalPos="43.82" arrivalSpeed="7.89" duration="22.00" routeLength="120.57" waitingTime="0.00" waitingCount="0" stopTime="0.00" timeLoss="9.02" rerouteNo="2" devices="tripinfo_carflow.14" vType="car" speedFactor="0.99" vaporized=""/>
    <tripinfo id="carflow.0" depart="0.00" departLane="-E2_0" departPos="5.10" departSpeed="0.00" departDelay="0.00" arrival="108.00" arrivalLane="E1_0" arrivalPos="43.82" arrivalSpeed="7.56" duration="108.00" routeLength="405.71" waitingTime="2.00" waitingCount="1" stopTime="41.00" timeLoss="25.49" rerouteNo="2" devices="tripinfo_carflow.0" vType="car" speedFactor="1.06" vaporized=""/>
    <tripinfo id="carflow.1" depart="3.00" departLane="-E2_0" departPos="5.10" departSpeed="0.00" departDelay="3.00" arrival="124.00" arrivalLane="E1_0" arrivalPos="43.82" arrivalSpeed="9.01" duration="121.00" routeLength="405.71" waitingTime="13.00" waitingCount="1" stopTime="51.00" timeLoss="28.18" rerouteNo="2" devices="tripinfo_carflow.1" vType="car" speedFactor="0.94" vaporized=""/>
    <tripinfo id="carflow.7" depart="29.00" departLane="-E2_0" departPos="5.10" departSpeed="0.00" departDelay="29.00" arrival="132.00" arrivalLane="E1_0" arrivalPos="43.82" arrivalSpeed="8.58" duration="103.00" routeLength="354.31" waitingTime="1.00" waitingCount="1" stopTime="40.00" timeLoss="24.84" rerouteNo="5" devices="tripinfo_carflow.7" vType="car" speedFactor="0.89" vaporized=""/>
    <tripinfo id="carflow.6" depart="25.00" departLane="-E2_0" departPos="5.10" departSpeed="0.00" departDelay="25.00" arrival="143.00" arrivalLane="E1_0" arrivalPos="43.82" arrivalSpeed="9.91" duration="118.00" routeLength="405.71" waitingTime="5.00" waitingCount="2" stopTime="40.00" timeLoss="36.78" rerouteNo="4" devices="tripinfo_carflow.6" vType="car" speedFactor="1.05" vaporized=""/>
    <tripinfo id="carflow.16" depart="60.00" departLane="-E2_0" departPos="5.10" departSpeed="0.00" departDelay="60.00" arrival="154.00" arrivalLane="E1_0" arrivalPos="43.82" arrivalSpeed="9.06" duration="94.00" routeLength="488.36" waitingTime="2.00" waitingCount="2" stopTime="0.00" timeLoss="40.70" rerouteNo="6" devices="tripinfo_carflow.16" vType="car" speedFactor="0.88" vaporized=""/>
    <tripinfo id="carflow.3" depart="12.00" departLane="-E2_0" departPos="5.10" departSpeed="0.00" departDelay="12.00" arrival="169.00" arrivalLane="E1_0" arrivalPos="43.82" arrivalSpeed="9.57" duration="157.00" routeLength="405.71" waitingTime="36.00" waitingCount="5" stopTime="54.00" timeLoss="61.23" rerouteNo="2" devices="tripinfo_carflow.3" vType="car" speedFactor="1.08" vaporized=""/>
    <tripinfo id="carflow.43" depart="156.00" departLane="-E2_0" departPos="5.10" departSpeed="0.00" departDelay="156.00" arrival="180.00" arrivalLane="E1_0" arrivalPos="43.82" arrivalSpeed="9.15" duration="24.00" routeLength="120.57" waitingTime="0.00" waitingCount="0" stopTime="0.00" timeLoss="10.22" rerouteNo="2" devices="tripinfo_carflow.43" vType="car" speedFactor="1.04" vaporized=""/>
    <tripinfo id="carflow.15" depart="56.00" departLane="-E2_0" departPos="5.10" departSpeed="0.00" departDelay="56.00" arrival="190.00" arrivalLane="E1_0" arrivalPos="43.82" arrivalSpeed="8.92" duration="134.00" routeLength="488.36" waitingTime="6.00" waitingCount="2" stopTime="40.00" timeLoss="42.17" rerouteNo="5" devices="tripinfo_carflow.15" vType="car" speedFactor="0.93" vaporized=""/>
    <tripinfo id="carflow.22" depart="82.00" departLane="-E2_0" departPos="5.10" departSpeed="0.00" departDelay="82.00" arrival="194.00" arrivalLane="E1_0" arrivalPos="43.82" arrivalSpeed="8.12" duration="112.00" routeLength="338.41" waitingTime="1.00" waitingCount="1" stopTime="40.00" timeLoss="35.42" rerouteNo="6" devices="tripinfo_carflow.22" vType="car" speedFactor="0.97" vaporized=""/>
    <tripinfo id="carflow.8" depart="32.00" departLane="-E2_0" departPos="5.10" departSpeed="0.00" departDelay="32.00" arrival="201.00" arrivalLane="E1_0" arrivalPos="43.82" arrivalSpeed="8.36" duration="169.00" routeLength="405.71" waitingTime="43.00" waitingCount="8" stopTime="41.00" timeLoss="85.56" rerouteNo="4" devices="tripinfo_carflow.8" vType="car" speedFactor="0.94" vaporized=""/>
    <tripinfo id="carflow.10" depart="39.00" departLane="-E2_0" departPos="5.10" departSpeed="0.00" departDelay="39.00" arrival="203.00" arrivalLane="E1_0" arrivalPos="43.82" arrivalSpeed="8.26" duration="164.00" routeLength="405.71" waitingTime="52.00" waitingCount="4" stopTime="53.00" timeLoss="69.59" rerouteNo="4" devices="tripinfo_carflow.10" vType="car" speedFactor="1.09" vaporized=""/>
    <tripinfo id="carflow.13" depart="49.00" departLane="-E2_0" departPos="5.10" departSpeed="0.00" departDelay="49.00" arrival="206.00" arrivalLane="E1_0" arrivalPos="43.82" arrivalSpeed="9.29" duration="157.00" routeLength="405.71" waitingTime="36.00" waitingCount="4" stopTime="46.00" timeLoss="69.35" rerouteNo="2" devices="tripinfo_carflow.13" vType="car" speedFactor="1.12" vaporized=""/>
    <tripinfo id="carflow.18" depart="67.00" departLane="-E2_0" departPos="5.10" departSpeed="0.00" departDelay="67.00" arrival="210.00" arrivalLane="E1_0" arrivalPos="43.82" arrivalSpeed="9.89" duration="143.00" routeLength="405.71" waitingTime="23.00" waitingCount="2" stopTime="40.00" timeLoss="60.90" rerouteNo="2" devices="tripinfo_carflow.18" vType="car" speedFactor="0.94" vaporized=""/>
    <tripinfo id="carflow.5" depart="20.00" departLane="-E2_0" departPos="5.10" departSpeed="0.00" departDelay="20.00" arrival="214.00" arrivalLane="E1_0" arrivalPos="43.82" arrivalSpeed="7.90" duration="194.00" routeLength="491.71" waitingTime="58.00" waitingCount="3" stopTime="40.00" timeLoss="101.44" rerouteNo="4" devices="tripinfo_carflow.5" vType="car" speedFactor="0.83" vaporized=""/>
    <tripinfo id="carflow.12" depart="45.00" departLane="-E2_0" departPos="5.10" departSpeed="0.00" departDelay="45.00" arrival="218.00" arrivalLane="E1_0" arrivalPos="43.82" arrivalSpeed="9.80" duration="173.00" routeLength="453.66" waitingTime="39.00" waitingCount="3" stopTime="40.00" timeLoss="85.86" rerouteNo="6" devices="tripinfo_carflow.12" vType="car" speedFactor="1.05" vaporized=""/>
    <tripinfo id="carflow.20" depart="74.00" departLane="-E2_0" departPos="5.10" departSpeed="0.00" departDelay="74.00" arrival="222.00" arrivalLane="E1_0" arrivalPos="43.82" arrivalSpeed="7.57" duration="148.00" routeLength="405.71" waitingTime="25.00" waitingCount="2" stopTime="43.00" timeLoss="63.48" rerouteNo="2" devices="tripinfo_carflow.20" vType="car" speedFactor="1.02" vaporized=""/>
    <tripinfo id="carflow.40" depart="146.00" departLane="-E2_0" departPos="5.10" departSpeed="0.00" departDelay="146.00" arrival="226.00" arrivalLane="E1_0" arrivalPos="43.82" arrivalSpeed="9.85" duration="80.00" routeLength="474.62" waitingTime="0.00" waitingCount="0" stopTime="0.00" timeLoss="29.92" rerouteNo="7" devices="tripinfo_carflow.40" vType="car" speedFactor="1.03" vaporized=""/>
    <tripinfo id="carflow.35" depart="128.00" departLane="-E2_0" departPos="5.10" departSpeed="0.00" departDelay="128.00" arrival="232.00" arrivalLane="E1_0" arrivalPos="43.82" arrivalSpeed="8.51" duration="104.00" routeLength="338.41" waitingTime="1.00" waitingCount="1" stopTime="40.00" timeLoss="27.15" rerouteNo="5" devices="tripinfo_carflow.35" vType="car" speedFactor="1.02" vaporized=""/>
    <tripinfo id="carflow.26" depart="96.00" departLane="-E2_0" departPos="5.10" departSpeed="0.00" departDelay="96.00" arrival="236.00" arrivalLane="E1_0" arrivalPos="43.82" arrivalSpeed="9.46" duration="140.00" routeLength="586.42" waitingTime="0.00" waitingCount="0" stopTime="40.00" timeLoss="38.33" rerouteNo="6" devices="tripinfo_carflow.26" vType="car" speedFactor="0.92" vaporized=""/>
    <tripinfo id="carflow.29" depart="106.00" departLane="-E2_0" departPos="5.10" departSpeed="0.00" departDelay="106.00" arrival="241.00" arrivalLane="E1_0" arrivalPos="43.82" arrivalSpeed="8.48" duration="135.00" routeLength="405.71" waitingTime="15.00" waitingCount="4" stopTime="46.00" timeLoss="46.54" rerouteNo="2" devices="tripinfo_carflow.29" vType="car" speedFactor="0.93" vaporized=""/>
    <tripinfo id="carflow.11" depart="42.00" departLane="-E2_0" departPos="5.10" departSpeed="0.00" departDelay="42.00" arrival="245.00" arrivalLane="E1_0" arrivalPos="43.82" arrivalSpeed="9.11" duration="203.00" routeLength="588.94" waitingTime="26.00" waitingCount="8" stopTime="40.00" timeLoss="103.37" rerouteNo="6" devices="tripinfo_carflow.11" vType="car" speedFactor="1.03" vaporized=""/>
    <tripinfo id="carflow.34" depart="125.00" departLane="-E2_0" departPos="5.10" departSpeed="0.00" departDelay="125.00" arrival="248.00" arrivalLane="E1_0" arrivalPos="43.82" arrivalSpeed="7.85" duration="123.00" routeLength="405.71" waitingTime="2.00" waitingCount="1" stopTime="40.00" timeLoss="41.18" rerouteNo="2" devices="tripinfo_carflow.34" vType="car" speedFactor="0.99" vaporized=""/>
    <tripinfo id="carflow.23" depart="85.00" departLane="-E2_0" departPos="5.10" departSpeed="0.00" departDelay="85.00" arrival="253.00" arrivalLane="E1_0" arrivalPos="43.82" arrivalSpeed="9.53" duration="168.00" routeLength="597.71" waitingTime="7.00" waitingCount="2" stopTime="40.00" timeLoss="63.88" rerouteNo="8" devices="tripinfo_carflow.23" vType="car" speedFactor="0.89" vaporized=""/>
    <tripinfo id="carflow.19" depart="70.00" departLane="-E2_0" departPos="5.10" departSpeed="0.00" departDelay="70.00" arrival="258.00" arrivalLane="E1_0" arrivalPos="43.82" arrivalSpeed="9.36" duration="188.00" routeLength="491.71" waitingTime="27.00" waitingCount="4" stopTime="40.00" timeLoss="97.69" rerouteNo="4" devices="tripinfo_carflow.19" vType="car" speedFactor="1.16" vaporized=""/>
    <tripinfo id="carflow.21" depart="79.00" departLane="-E2_0" departPos="5.10" departSpeed="0.00" departDelay="79.00" arrival="261.00" arrivalLane="E1_0" arrivalPos="43.82" arrivalSpeed="8.32" duration="182.00" routeLength="354.31" waitingTime="38.00" waitingCount="9" stopTime="40.00" timeLoss="104.27" rerouteNo="5" devices="tripinfo_carflow.21" vType="car" speedFactor="1.01" vaporized=""/>
    <tripinfo id="carflow.24" depart="89.00" departLane="-E2_0" departPos="5.10" departSpeed="0.00" departDelay="89.00" arrival="264.00" arrivalLane="E1_0" arrivalPos="43.82" arrivalSpeed="8.94" duration="175.00" routeLength="491.71" waitingTime="25.00" waitingCount="4" stopTime="40.00" timeLoss="83.21" rerouteNo="5" devices="tripinfo_carflow.24" vType="car" speedFactor="0.83" vaporized=""/>
    <tripinfo id="carflow.39" depart="142.00" departLane="-E2_0" departPos="5.10" departSpeed="0.00" departDelay="142.00" arrival="269.00" arrivalLane="E1_0" arrivalPos="43.82" arrivalSpeed="7.96" duration="127.00" routeLength="405.71" waitingTime="0.00" waitingCount="0" stopTime="40.00" timeLoss="44.23" rerouteNo="2" devices="tripinfo_carflow.39" vType="car" speedFactor="0.90" vaporized=""/>
    <tripinfo id="carflow.32" depart="118.00" departLane="-E2_0" departPos="5.10" departSpeed="0.00" departDelay="118.00" arrival="273.00" arrivalLane="E1_0" arrivalPos="43.82" arrivalSpeed="8.20" duration="155.00" routeLength="594.63" waitingTime="4.00" waitingCount="1" stopTime="40.00" timeLoss="52.76" rerouteNo="7" devices="tripinfo_carflow.32" vType="car" speedFactor="1.01" vaporized=""/>
    <tripinfo id="carflow.48" depart="175.00" departLane="-E2_0" departPos="5.10" departSpeed="0.00" departDelay="175.00" arrival="276.00" arrivalLane="E1_0" arrivalPos="43.82" arrivalSpeed="8.08" duration="101.00" routeLength="354.31" waitingTime="22.00" waitingCount="4" stopTime="0.00" timeLoss="63.01" rerouteNo="6" devices="tripinfo_carflow.48" vType="car" speedFactor="0.88" vaporized=""/>
    <tripinfo id="carflow.17" depart="64.00" departLane="-E2_0" departPos="5.10" departSpeed="0.00" departDelay="64.00" arrival="281.00" arrivalLane="E1_0" arrivalPos="43.82" arrivalSpeed="9.21" duration="217.00" routeLength="453.66" waitingTime="70.00" waitingCount="5" stopTime="41.00" timeLoss="128.43" rerouteNo="7" devices="tripinfo_carflow.17" vType="car" speedFactor="0.94" vaporized=""/>
    <tripinfo id="carflow.37" depart="136.00" departLane="-E2_0" departPos="5.10" departSpeed="0.00" departDelay="136.00" arrival="285.00" arrivalLane="E1_0" arrivalPos="43.82" arrivalSpeed="9.42" duration="149.00" routeLength="487.09" waitingTime="12.00" waitingCount="2" stopTime="40.00" timeLoss="58.67" rerouteNo="6" devices="tripinfo_carflow.37" vType="car" speedFactor="1.18" vaporized=""/>
    <tripinfo id="carflow.38" depart="139.00" departLane="-E2_0" departPos="5.10" departSpeed="0.00" departDelay="139.00" arrival="289.00" arrivalLane="E1_0" arrivalPos="43.82" arrivalSpeed="8.63" duration="150.00" routeLength="354.31" waitingTime="15.00" waitingCount="4" stopTime="40.00" timeLoss="73.51" rerouteNo="5" devices="tripinfo_carflow.38" vType="car" speedFactor="1.10" vaporized=""/>
    <tripinfo id="carflow.49" depart="178.00" departLane="-E2_0" departPos="5.10" departSpeed="0.00" departDelay="178.00" arrival="293.00" arrivalLane="E1_0" arrivalPos="43.82" arrivalSpeed="7.74" duration="115.00" routeLength="405.71" waitingTime="2.00" waitingCount="1" stopTime="40.00" timeLoss="32.90" rerouteNo="2" devices="tripinfo_carflow.49" vType="car" speedFactor="0.85" vaporized=""/>
    <tripinfo id="carflow.36" depart="132.00" departLane="-E2_0" departPos="5.10" departSpeed="0.00" departDelay="132.00" arrival="297.00" arrivalLane="E1_0" arrivalPos="43.82" arrivalSpeed="7.70" duration="165.00" routeLength="497.43" waitingTime="17.00" waitingCount="5" stopTime="40.00" timeLoss="72.21" rerouteNo="6" devices="tripinfo_carflow.36" vType="car" speedFactor="0.97" vaporized=""/>
    <tripinfo id="carflow.46" depart="169.00" departLane="-E2_0" departPos="5.10" departSpeed="0.00" departDelay="169.00" arrival="303.00" arrivalLane="E1_0" arrivalPos="43.82" arrivalSpeed="8.12" duration="134.00" routeLength="588.09" waitingTime="2.00" waitingCount="1" stopTime="40.00" timeLoss="32.34" rerouteNo="9" devices="tripinfo_carflow.46" vType="car" speedFactor="1.00" vaporized=""/>
    <tripinfo id="carflow.28" depart="103.00" departLane="-E2_0" departPos="5.10" departSpeed="0.00" departDelay="103.00" arrival="307.00" arrivalLane="E1_0" arrivalPos="43.82" arrivalSpeed="7.50" duration="204.00" routeLength="453.66" waitingTime="54.00" waitingCount="8" stopTime="40.00" timeLoss="117.80" rerouteNo="6" devices="tripinfo_carflow.28" vType="car" speedFactor="1.13" vaporized=""/>
    <tripinfo id="carflow.44" depart="161.00" departLane="-E2_0" departPos="5.10" departSpeed="0.00" departDelay="161.00" arrival="310.00" arrivalLane="E1_0" arrivalPos="43.82" arrivalSpeed="7.56" duration="149.00" routeLength="487.09" waitingTime="4.00" waitingCount="3" stopTime="40.00" timeLoss="58.12" rerouteNo="7" devices="tripinfo_carflow.44" vType="car" speedFactor="1.04" vaporized=""/>
    <tripinfo id="carflow.9" depart="35.00" departLane="-E2_0" departPos="5.10" departSpeed="0.00" departDelay="35.00" arrival="317.00" arrivalLane="E1_0" arrivalPos="43.82" arrivalSpeed="8.73" duration="282.00" routeLength="851.48" waitingTime="70.00" waitingCount="10" stopTime="40.00" timeLoss="150.03" rerouteNo="13" devices="tripinfo_carflow.9" vType="car" speedFactor="0.86" vaporized=""/>
    <tripinfo id="carflow.27" depart="100.00" departLane="-E2_0" departPos="5.10" departSpeed="0.00" departDelay="100.00" arrival="321.00" arrivalLane="E1_0" arrivalPos="43.82" arrivalSpeed="9.90" duration="221.00" routeLength="588.94" waitingTime="33.00" waitingCount="3" stopTime="43.00" timeLoss="116.19" rerouteNo="6" devices="tripinfo_carflow.27" vType="car" speedFactor="0.95" vaporized=""/>
    <tripinfo id="carflow.42" depart="152.00" departLane="-E2_0" departPos="5.10" departSpeed="0.00" departDelay="152.00" arrival="324.00" arrivalLane="E1_0" arrivalPos="43.82" arrivalSpeed="7.63" duration="172.00" routeLength="584.32" waitingTime="1.00" waitingCount="1" stopTime="40.00" timeLoss="71.96" rerouteNo="8" devices="tripinfo_carflow.42" vType="car" speedFactor="1.09" vaporized=""/>
    <tripinfo id="carflow.30" depart="109.00" departLane="-E2_0" departPos="5.10" departSpeed="0.00" departDelay="109.00" arrival="329.00" arrivalLane="E1_0" arrivalPos="43.82" arrivalSpeed="9.58" duration="220.00" routeLength="584.32" waitingTime="60.00" waitingCount="2" stopTime="97.00" timeLoss="62.50" rerouteNo="9" devices="tripinfo_carflow.30" vType="car" speedFactor="1.18" vaporized=""/>
    <tripinfo id="carflow.25" depart="92.00" departLane="-E2_0" departPos="5.10" departSpeed="0.00" departDelay="92.00" arrival="331.00" arrivalLane="E1_0" arrivalPos="43.82" arrivalSpeed="9.86" duration="239.00" routeLength="491.71" waitingTime="92.00" waitingCount="2" stopTime="127.00" timeLoss="60.19" rerouteNo="6" devices="tripinfo_carflow.25" vType="car" speedFactor="0.87" vaporized=""/>
    <tripinfo id="carflow.33" depart="121.00" departLane="-E2_0" departPos="5.10" departSpeed="0.00" departDelay="121.00" arrival="336.00" arrivalLane="E1_0" arrivalPos="43.82" arrivalSpeed="7.97" duration="215.00" routeLength="354.31" waitingTime="80.00" waitingCount="4" stopTime="96.00" timeLoss="82.62" rerouteNo="7" devices="tripinfo_carflow.33" vType="car" speedFactor="1.17" vaporized=""/>
    <tripinfo id="carflow.45" depart="165.00" departLane="-E2_0" departPos="5.10" departSpeed="0.00" departDelay="165.00" arrival="342.00" arrivalLane="E1_0" arrivalPos="43.82" arrivalSpeed="8.39" duration="177.00" routeLength="583.95" waitingTime="19.00" waitingCount="4" stopTime="40.00" timeLoss="75.20" rerouteNo="10" devices="tripinfo_carflow.45" vType="car" speedFactor="1.09" vaporized=""/>
    <tripinfo id="carflow.47" depart="172.00" departLane="-E2_0" departPos="5.10" departSpeed="0.00" departDelay="172.00" arrival="346.00" arrivalLane="E1_0" arrivalPos="43.82" arrivalSpeed="9.48" duration="174.00" routeLength="807.71" waitingTime="2.00" waitingCount="2" stopTime="40.00" timeLoss="48.19" rerouteNo="11" devices="tripinfo_carflow.47" vType="car" speedFactor="0.90" vaporized=""/>
    <tripinfo id="carflow.31" depart="113.00" departLane="-E2_0" departPos="5.10" departSpeed="0.00" departDelay="113.00" arrival="373.00" arrivalLane="E1_0" arrivalPos="43.82" arrivalSpeed="9.61" duration="260.00" routeLength="1046.25" waitingTime="29.00" waitingCount="5" stopTime="40.00" timeLoss="113.28" rerouteNo="14" devices="tripinfo_carflow.31" vType="car" speedFactor="1.15" vaporized=""/>
    <tripinfo id="carflow.41" depart="149.00" departLane="-E2_0" departPos="5.10" departSpeed="0.00" departDelay="149.00" arrival="395.00" arrivalLane="E1_0" arrivalPos="43.82" arrivalSpeed="8.27" duration="246.00" routeLength="817.10" waitingTime="33.00" waitingCount="7" stopTime="40.00" timeLoss="121.03" rerouteNo="11" devices="tripinfo_carflow.41" vType="car" speedFactor="0.96" vaporized=""/>
</tripinfos>
