<?xml version="1.0" encoding="UTF-8"?>

<!-- generated on 2024-11-09 19:09:57 by Eclipse SUMO GUI Version v1_20_0+2013-dea7f8276dd
<sumoConfiguration xmlns:xsi="http://www.w3.org/2001/XMLSchema-instance" xsi:noNamespaceSchemaLocation="http://sumo.dlr.de/xsd/sumoConfiguration.xsd">

    <input>
        <net-file value="parking_on_off_road.net.xml"/>
        <additional-files value="parking_on_off_road.add.xml"/>
    </input>

    <output>
        <tripinfo-output value="tripinfo_0.75_0.xml"/>
    </output>

    <traci_server>
        <remote-port value="40817"/>
    </traci_server>

    <gui_only>
        <quit-on-end value="true"/>
        <start value="true"/>
    </gui_only>

</sumoConfiguration>
-->

<tripinfos xmlns:xsi="http://www.w3.org/2001/XMLSchema-instance" xsi:noNamespaceSchemaLocation="http://sumo.dlr.de/xsd/tripinfo_file.xsd">
    <tripinfo id="vehicle_8" depart="0.00" departLane="-E37_0" departPos="31.38" departSpeed="0.10" departDelay="0.00" arrival="122.00" arrivalLane="-E40_0" arrivalPos="89.06" arrivalSpeed="12.57" duration="122.00" routeLength="753.04" waitingTime="1.00" waitingCount="1" stopTime="20.00" timeLoss="39.17" rerouteNo="4" devices="tripinfo_vehicle_8" vType="DEFAULT_VEHTYPE" speedFactor="0.94" vaporized=""/>
    <tripinfo id="vehicle_1" depart="0.00" departLane="-E76_0" departPos="30.71" departSpeed="0.10" departDelay="0.00" arrival="237.00" arrivalLane="E86_0" arrivalPos="183.31" arrivalSpeed="12.22" duration="237.00" routeLength="852.66" waitingTime="2.00" waitingCount="1" stopTime="138.00" timeLoss="27.40" rerouteNo="2" devices="tripinfo_vehicle_1" vType="DEFAULT_VEHTYPE" speedFactor="0.94" vaporized=""/>
    <tripinfo id="vehicle_2" depart="0.00" departLane="-E82_0" departPos="27.76" departSpeed="0.10" departDelay="0.00" arrival="249.00" arrivalLane="E86_0" arrivalPos="183.31" arrivalSpeed="13.85" duration="249.00" routeLength="993.69" waitingTime="0.00" waitingCount="0" stopTime="147.00" timeLoss="27.17" rerouteNo="2" devices="tripinfo_vehicle_2" vType="DEFAULT_VEHTYPE" speedFactor="1.01" vaporized=""/>
    <tripinfo id="vehicle_6" depart="0.00" departLane="E63_0" departPos="76.12" departSpeed="0.10" departDelay="0.00" arrival="251.00" arrivalLane="E86_0" arrivalPos="183.31" arrivalSpeed="13.95" duration="251.00" routeLength="1214.24" waitingTime="0.00" waitingCount="0" stopTime="116.00" timeLoss="46.44" rerouteNo="2" devices="tripinfo_vehicle_6" vType="DEFAULT_VEHTYPE" speedFactor="1.05" vaporized=""/>
    <tripinfo id="vehicle_4" depart="0.00" departLane="E72_0" departPos="32.29" departSpeed="0.10" departDelay="0.00" arrival="273.00" arrivalLane="E86_0" arrivalPos="183.31" arrivalSpeed="13.05" duration="273.00" routeLength="1047.89" waitingTime="0.00" waitingCount="0" stopTime="165.00" timeLoss="30.24" rerouteNo="2" devices="tripinfo_vehicle_4" vType="DEFAULT_VEHTYPE" speedFactor="1.03" vaporized=""/>
    <tripinfo id="vehicle_10" depart="0.00" departLane="-E14_0" departPos="0.00" departSpeed="0.10" departDelay="0.00" arrival="304.00" arrivalLane="E86_0" arrivalPos="183.31" arrivalSpeed="5.66" duration="304.00" routeLength="921.94" waitingTime="0.00" waitingCount="0" stopTime="125.00" timeLoss="24.58" rerouteNo="2" devices="tripinfo_vehicle_10" vType="DEFAULT_VEHTYPE@vehicle_10" speedFactor="1.09" vaporized=""/>
    <tripinfo id="vehicle_0" depart="0.00" departLane="E56_0" departPos="58.39" departSpeed="0.10" departDelay="0.00" arrival="306.00" arrivalLane="E86_0" arrivalPos="183.31" arrivalSpeed="9.38" duration="306.00" routeLength="916.45" waitingTime="0.00" waitingCount="0" stopTime="193.00" timeLoss="49.52" rerouteNo="2" devices="tripinfo_vehicle_0" vType="DEFAULT_VEHTYPE" speedFactor="1.06" vaporized=""/>
    <tripinfo id="vehicle_7" depart="0.00" departLane="E50_0" departPos="45.89" departSpeed="0.10" departDelay="0.00" arrival="346.00" arrivalLane="E86_0" arrivalPos="183.31" arrivalSpeed="11.84" duration="346.00" routeLength="1922.98" waitingTime="2.00" waitingCount="2" stopTime="105.00" timeLoss="76.30" rerouteNo="5" devices="tripinfo_vehicle_7" vType="DEFAULT_VEHTYPE" speedFactor="0.89" vaporized=""/>
    <tripinfo id="vehicle_9" depart="0.00" departLane="-E29_0" departPos="39.09" departSpeed="0.10" departDelay="0.00" arrival="367.00" arrivalLane="E86_0" arrivalPos="183.31" arrivalSpeed="11.65" duration="367.00" routeLength="1343.59" waitingTime="1.00" waitingCount="1" stopTime="188.00" timeLoss="61.25" rerouteNo="2" devices="tripinfo_vehicle_9" vType="DEFAULT_VEHTYPE" speedFactor="0.86" vaporized=""/>
    <tripinfo id="vehicle_17" depart="70.00" departLane="E60_0" departPos="0.00" departSpeed="0.10" departDelay="0.00" arrival="389.00" arrivalLane="E86_0" arrivalPos="183.31" arrivalSpeed="5.48" duration="319.00" routeLength="1068.31" waitingTime="3.00" waitingCount="1" stopTime="109.00" timeLoss="30.79" rerouteNo="2" devices="tripinfo_vehicle_17" vType="DEFAULT_VEHTYPE@vehicle_17" speedFactor="0.94" vaporized=""/>
    <tripinfo id="vehicle_5" depart="0.00" departLane="-E72_0" departPos="28.81" departSpeed="0.10" departDelay="0.00" arrival="391.00" arrivalLane="E86_0" arrivalPos="183.31" arrivalSpeed="9.55" duration="391.00" routeLength="1659.12" waitingTime="0.00" waitingCount="0" stopTime="174.00" timeLoss="62.82" rerouteNo="16" devices="tripinfo_vehicle_5" vType="DEFAULT_VEHTYPE" speedFactor="0.83" vaporized=""/>
    <tripinfo id="vehicle_14" depart="40.00" departLane="E19_0" departPos="0.00" departSpeed="0.10" departDelay="0.00" arrival="408.00" arrivalLane="E86_0" arrivalPos="183.31" arrivalSpeed="5.60" duration="368.00" routeLength="1050.94" waitingTime="0.00" waitingCount="0" stopTime="169.00" timeLoss="23.01" rerouteNo="7" devices="tripinfo_vehicle_14" vType="DEFAULT_VEHTYPE@vehicle_14" speedFactor="0.99" vaporized=""/>
    <tripinfo id="vehicle_3" depart="0.00" departLane="E67_0" departPos="56.96" departSpeed="0.10" departDelay="0.00" arrival="410.00" arrivalLane="E86_0" arrivalPos="183.31" arrivalSpeed="8.82" duration="410.00" routeLength="2154.35" waitingTime="0.00" waitingCount="0" stopTime="196.00" timeLoss="60.18" rerouteNo="12" devices="tripinfo_vehicle_3" vType="DEFAULT_VEHTYPE" speedFactor="1.08" vaporized=""/>
    <tripinfo id="vehicle_12" depart="20.00" departLane="E56_0" departPos="0.00" departSpeed="0.10" departDelay="0.00" arrival="434.00" arrivalLane="E86_0" arrivalPos="183.31" arrivalSpeed="5.17" duration="414.00" routeLength="1621.03" waitingTime="3.00" waitingCount="1" stopTime="102.00" timeLoss="41.36" rerouteNo="3" devices="tripinfo_vehicle_12" vType="DEFAULT_VEHTYPE@vehicle_12" speedFactor="1.05" vaporized=""/>
    <tripinfo id="vehicle_13" depart="30.00" departLane="-E53_0" departPos="0.00" departSpeed="0.10" departDelay="0.00" arrival="439.00" arrivalLane="E86_0" arrivalPos="183.31" arrivalSpeed="5.99" duration="409.00" routeLength="1575.10" waitingTime="2.00" waitingCount="1" stopTime="109.00" timeLoss="36.85" rerouteNo="6" devices="tripinfo_vehicle_13" vType="DEFAULT_VEHTYPE@vehicle_13" speedFactor="1.12" vaporized=""/>
    <tripinfo id="vehicle_18" depart="80.00" departLane="E12_0" departPos="0.00" departSpeed="0.10" departDelay="0.00" arrival="472.00" arrivalLane="E86_0" arrivalPos="183.31" arrivalSpeed="5.15" duration="392.00" routeLength="1185.45" waitingTime="4.00" waitingCount="1" stopTime="157.00" timeLoss="35.94" rerouteNo="2" devices="tripinfo_vehicle_18" vType="DEFAULT_VEHTYPE@vehicle_18" speedFactor="0.94" vaporized=""/>
    <tripinfo id="vehicle_20" depart="100.00" departLane="E44_0" departPos="0.00" departSpeed="0.10" departDelay="0.00" arrival="479.00" arrivalLane="E86_0" arrivalPos="183.31" arrivalSpeed="5.35" duration="379.00" routeLength="1255.41" waitingTime="7.00" waitingCount="1" stopTime="131.00" timeLoss="38.26" rerouteNo="3" devices="tripinfo_vehicle_20" vType="DEFAULT_VEHTYPE@vehicle_20" speedFactor="1.02" vaporized=""/>
    <tripinfo id="vehicle_45" depart="350.00" departLane="-E55_0" departPos="0.00" departSpeed="0.10" departDelay="0.00" arrival="493.00" arrivalLane="-E40_0" arrivalPos="89.06" arrivalSpeed="5.97" duration="143.00" routeLength="758.88" waitingTime="0.00" waitingCount="0" stopTime="0.00" timeLoss="16.39" rerouteNo="2" devices="tripinfo_vehicle_45" vType="DEFAULT_VEHTYPE@vehicle_45" speedFactor="1.09" vaporized=""/>
    <tripinfo id="vehicle_11" depart="10.00" departLane="-E9_0" departPos="0.00" departSpeed="0.10" departDelay="0.00" arrival="498.00" arrivalLane="E86_0" arrivalPos="183.31" arrivalSpeed="4.75" duration="488.00" routeLength="1875.40" waitingTime="2.00" waitingCount="1" stopTime="126.00" timeLoss="48.78" rerouteNo="2" devices="tripinfo_vehicle_11" vType="DEFAULT_VEHTYPE@vehicle_11" speedFactor="1.03" vaporized=""/>
    <tripinfo id="vehicle_21" depart="110.00" departLane="-E55_0" departPos="0.00" departSpeed="0.10" departDelay="0.00" arrival="525.00" arrivalLane="E86_0" arrivalPos="183.31" arrivalSpeed="5.60" duration="415.00" routeLength="1460.83" waitingTime="8.00" waitingCount="2" stopTime="127.00" timeLoss="43.80" rerouteNo="5" devices="tripinfo_vehicle_21" vType="DEFAULT_VEHTYPE@vehicle_21" speedFactor="1.01" vaporized=""/>
    <tripinfo id="vehicle_34" depart="240.00" departLane="E47_0" departPos="0.00" departSpeed="0.10" departDelay="0.00" arrival="535.00" arrivalLane="E86_0" arrivalPos="183.31" arrivalSpeed="5.27" duration="295.00" routeLength="1071.43" waitingTime="1.00" waitingCount="1" stopTime="90.00" timeLoss="26.16" rerouteNo="5" devices="tripinfo_vehicle_34" vType="DEFAULT_VEHTYPE@vehicle_34" speedFactor="0.99" vaporized=""/>
    <tripinfo id="vehicle_31" depart="210.00" departLane="-E53_0" departPos="0.00" departSpeed="0.10" departDelay="0.00" arrival="540.00" arrivalLane="E86_0" arrivalPos="183.31" arrivalSpeed="4.78" duration="330.00" routeLength="1176.29" waitingTime="6.00" waitingCount="1" stopTime="98.00" timeLoss="35.92" rerouteNo="2" devices="tripinfo_vehicle_31" vType="DEFAULT_VEHTYPE@vehicle_31" speedFactor="1.15" vaporized=""/>
    <tripinfo id="vehicle_22" depart="120.00" departLane="-E67_0" departPos="0.00" departSpeed="0.10" departDelay="0.00" arrival="552.00" arrivalLane="E86_0" arrivalPos="183.31" arrivalSpeed="5.61" duration="432.00" routeLength="1495.69" waitingTime="12.00" waitingCount="2" stopTime="130.00" timeLoss="51.43" rerouteNo="5" devices="tripinfo_vehicle_22" vType="DEFAULT_VEHTYPE@vehicle_22" speedFactor="0.97" vaporized=""/>
    <tripinfo id="vehicle_29" depart="190.00" departLane="-E66_0" departPos="0.00" departSpeed="0.10" departDelay="0.00" arrival="554.00" arrivalLane="E86_0" arrivalPos="183.31" arrivalSpeed="4.87" duration="364.00" routeLength="1304.23" waitingTime="0.00" waitingCount="0" stopTime="116.00" timeLoss="30.62" rerouteNo="2" devices="tripinfo_vehicle_29" vType="DEFAULT_VEHTYPE@vehicle_29" speedFactor="0.93" vaporized=""/>
    <tripinfo id="vehicle_30" depart="200.00" departLane="-E32_0" departPos="0.00" departSpeed="0.10" departDelay="0.00" arrival="558.00" arrivalLane="E86_0" arrivalPos="183.31" arrivalSpeed="5.63" duration="358.00" routeLength="1082.54" waitingTime="1.00" waitingCount="1" stopTime="149.00" timeLoss="27.85" rerouteNo="2" devices="tripinfo_vehicle_30" vType="DEFAULT_VEHTYPE@vehicle_30" speedFactor="1.18" vaporized=""/>
    <tripinfo id="vehicle_25" depart="150.00" departLane="-E29_0" departPos="0.00" departSpeed="0.10" departDelay="0.00" arrival="565.00" arrivalLane="E86_0" arrivalPos="183.31" arrivalSpeed="5.65" duration="415.00" routeLength="1359.53" waitingTime="2.00" waitingCount="1" stopTime="151.00" timeLoss="36.31" rerouteNo="2" devices="tripinfo_vehicle_25" vType="DEFAULT_VEHTYPE@vehicle_25" speedFactor="0.87" vaporized=""/>
    <tripinfo id="vehicle_15" depart="50.00" departLane="-E84_0" departPos="0.00" departSpeed="0.10" departDelay="0.00" arrival="568.00" arrivalLane="E86_0" arrivalPos="183.31" arrivalSpeed="5.99" duration="518.00" routeLength="2118.11" waitingTime="12.00" waitingCount="3" stopTime="101.00" timeLoss="62.96" rerouteNo="5" devices="tripinfo_vehicle_15" vType="DEFAULT_VEHTYPE@vehicle_15" speedFactor="0.93" vaporized=""/>
    <tripinfo id="vehicle_23" depart="130.00" departLane="E70_0" departPos="0.00" departSpeed="0.10" departDelay="0.00" arrival="571.00" arrivalLane="E86_0" arrivalPos="183.31" arrivalSpeed="4.80" duration="441.00" routeLength="1723.63" waitingTime="15.00" waitingCount="3" stopTime="91.00" timeLoss="61.42" rerouteNo="7" devices="tripinfo_vehicle_23" vType="DEFAULT_VEHTYPE@vehicle_23" speedFactor="0.89" vaporized=""/>
    <tripinfo id="vehicle_27" depart="170.00" departLane="-E56_0" departPos="0.00" departSpeed="0.10" departDelay="0.00" arrival="586.00" arrivalLane="E86_0" arrivalPos="183.31" arrivalSpeed="5.95" duration="416.00" routeLength="1706.23" waitingTime="0.00" waitingCount="0" stopTime="93.00" timeLoss="37.92" rerouteNo="5" devices="tripinfo_vehicle_27" vType="DEFAULT_VEHTYPE@vehicle_27" speedFactor="0.95" vaporized=""/>
    <tripinfo id="vehicle_42" depart="320.00" departLane="-E74_0" departPos="0.00" departSpeed="0.10" departDelay="0.00" arrival="594.00" arrivalLane="E86_0" arrivalPos="183.31" arrivalSpeed="4.93" duration="274.00" routeLength="962.50" waitingTime="1.00" waitingCount="1" stopTime="88.00" timeLoss="25.22" rerouteNo="2" devices="tripinfo_vehicle_42" vType="DEFAULT_VEHTYPE@vehicle_42" speedFactor="1.09" vaporized=""/>
    <tripinfo id="vehicle_19" depart="90.00" departLane="-E55_0" departPos="0.00" departSpeed="0.10" departDelay="0.00" arrival="597.00" arrivalLane="E86_0" arrivalPos="183.31" arrivalSpeed="5.28" duration="507.00" routeLength="1989.57" waitingTime="0.00" waitingCount="0" stopTime="131.00" timeLoss="43.67" rerouteNo="2" devices="tripinfo_vehicle_19" vType="DEFAULT_VEHTYPE@vehicle_19" speedFactor="1.16" vaporized=""/>
    <tripinfo id="vehicle_16" depart="60.00" departLane="-E82_0" departPos="0.00" departSpeed="0.10" departDelay="0.00" arrival="600.00" arrivalLane="E86_0" arrivalPos="183.31" arrivalSpeed="5.36" duration="540.00" routeLength="2113.41" waitingTime="2.00" waitingCount="2" stopTime="124.00" timeLoss="62.06" rerouteNo="3" devices="tripinfo_vehicle_16" vType="DEFAULT_VEHTYPE@vehicle_16" speedFactor="0.88" vaporized=""/>
    <tripinfo id="vehicle_37" depart="270.00" departLane="-E74_0" departPos="0.00" departSpeed="0.10" departDelay="0.00" arrival="602.00" arrivalLane="-E40_0" arrivalPos="89.06" arrivalSpeed="4.84" duration="332.00" routeLength="1734.81" waitingTime="1.00" waitingCount="1" stopTime="0.00" timeLoss="42.64" rerouteNo="4" devices="tripinfo_vehicle_37" vType="DEFAULT_VEHTYPE@vehicle_37" speedFactor="1.18" vaporized=""/>
    <tripinfo id="vehicle_33" depart="232.00" departLane="-E45_0" departPos="0.00" departSpeed="0.10" departDelay="2.00" arrival="605.00" arrivalLane="E86_0" arrivalPos="183.31" arrivalSpeed="4.85" duration="373.00" routeLength="1162.58" waitingTime="1.00" waitingCount="1" stopTime="147.00" timeLoss="31.09" rerouteNo="2" devices="tripinfo_vehicle_33" vType="DEFAULT_VEHTYPE@vehicle_33" speedFactor="1.17" vaporized=""/>
    <tripinfo id="vehicle_38" depart="283.00" departLane="E54_0" departPos="0.00" departSpeed="0.10" departDelay="3.00" arrival="608.00" arrivalLane="E86_0" arrivalPos="183.31" arrivalSpeed="4.93" duration="325.00" routeLength="970.69" waitingTime="4.00" waitingCount="2" stopTime="129.00" timeLoss="34.00" rerouteNo="2" devices="tripinfo_vehicle_38" vType="DEFAULT_VEHTYPE@vehicle_38" speedFactor="1.10" vaporized=""/>
    <tripinfo id="vehicle_36" depart="260.00" departLane="-E65_0" departPos="0.00" departSpeed="0.10" departDelay="0.00" arrival="611.00" arrivalLane="E86_0" arrivalPos="183.31" arrivalSpeed="4.84" duration="351.00" routeLength="887.09" waitingTime="6.00" waitingCount="2" stopTime="164.00" timeLoss="38.70" rerouteNo="2" devices="tripinfo_vehicle_36" vType="DEFAULT_VEHTYPE@vehicle_36" speedFactor="0.97" vaporized=""/>
    <tripinfo id="vehicle_35" depart="250.00" departLane="E36_0" departPos="0.00" departSpeed="0.10" departDelay="0.00" arrival="632.00" arrivalLane="E86_0" arrivalPos="183.31" arrivalSpeed="4.99" duration="382.00" routeLength="1260.14" waitingTime="3.00" waitingCount="1" stopTime="136.00" timeLoss="34.97" rerouteNo="2" devices="tripinfo_vehicle_35" vType="DEFAULT_VEHTYPE@vehicle_35" speedFactor="1.02" vaporized=""/>
    <tripinfo id="vehicle_46" depart="360.00" departLane="-E68_0" departPos="0.00" departSpeed="0.10" departDelay="0.00" arrival="636.00" arrivalLane="E86_0" arrivalPos="183.31" arrivalSpeed="5.68" duration="276.00" routeLength="987.13" waitingTime="0.00" waitingCount="0" stopTime="84.00" timeLoss="26.46" rerouteNo="2" devices="tripinfo_vehicle_46" vType="DEFAULT_VEHTYPE@vehicle_46" speedFactor="1.00" vaporized=""/>
    <tripinfo id="vehicle_48" depart="380.00" departLane="-E34_0" departPos="0.00" departSpeed="0.10" departDelay="0.00" arrival="660.00" arrivalLane="E86_0" arrivalPos="183.31" arrivalSpeed="5.38" duration="280.00" routeLength="989.55" waitingTime="0.00" waitingCount="0" stopTime="84.00" timeLoss="29.38" rerouteNo="3" devices="tripinfo_vehicle_48" vType="DEFAULT_VEHTYPE@vehicle_48" speedFactor="0.88" vaporized=""/>
    <tripinfo id="vehicle_24" depart="140.00" departLane="E52_0" departPos="0.00" departSpeed="0.10" departDelay="0.00" arrival="668.00" arrivalLane="E86_0" arrivalPos="183.31" arrivalSpeed="5.48" duration="528.00" routeLength="2043.04" waitingTime="0.00" waitingCount="0" stopTime="138.00" timeLoss="48.01" rerouteNo="2" devices="tripinfo_vehicle_24" vType="DEFAULT_VEHTYPE@vehicle_24" speedFactor="0.83" vaporized=""/>
    <tripinfo id="vehicle_43" depart="330.00" departLane="-E53_0" departPos="0.00" departSpeed="0.10" departDelay="0.00" arrival="689.00" arrivalLane="E86_0" arrivalPos="183.31" arrivalSpeed="4.81" duration="359.00" routeLength="1453.37" waitingTime="0.00" waitingCount="0" stopTime="81.00" timeLoss="35.00" rerouteNo="2" devices="tripinfo_vehicle_43" vType="DEFAULT_VEHTYPE@vehicle_43" speedFactor="1.04" vaporized=""/>
    <tripinfo id="vehicle_32" depart="220.00" departLane="E54_0" departPos="0.00" departSpeed="0.10" departDelay="0.00" arrival="716.00" arrivalLane="E86_0" arrivalPos="183.31" arrivalSpeed="5.94" duration="496.00" routeLength="1971.17" waitingTime="4.00" waitingCount="1" stopTime="114.00" timeLoss="52.98" rerouteNo="2" devices="tripinfo_vehicle_32" vType="DEFAULT_VEHTYPE@vehicle_32" speedFactor="1.01" vaporized=""/>
    <tripinfo id="vehicle_60" depart="503.00" departLane="E45_0" departPos="0.00" departSpeed="0.10" departDelay="3.00" arrival="720.00" arrivalLane="E86_0" arrivalPos="183.31" arrivalSpeed="5.82" duration="217.00" routeLength="597.47" waitingTime="0.00" waitingCount="0" stopTime="99.00" timeLoss="17.54" rerouteNo="2" devices="tripinfo_vehicle_60" vType="DEFAULT_VEHTYPE@vehicle_60" speedFactor="1.08" vaporized=""/>
    <tripinfo id="vehicle_56" depart="460.00" departLane="E42_0" departPos="0.00" departSpeed="0.10" departDelay="0.00" arrival="729.00" arrivalLane="E86_0" arrivalPos="183.31" arrivalSpeed="5.75" duration="269.00" routeLength="907.43" waitingTime="0.00" waitingCount="0" stopTime="95.00" timeLoss="22.60" rerouteNo="2" devices="tripinfo_vehicle_56" vType="DEFAULT_VEHTYPE@vehicle_56" speedFactor="0.90" vaporized=""/>
    <tripinfo id="vehicle_39" depart="290.00" departLane="-E43_0" departPos="0.00" departSpeed="0.10" departDelay="0.00" arrival="763.00" arrivalLane="E86_0" arrivalPos="183.31" arrivalSpeed="4.89" duration="473.00" routeLength="1599.01" waitingTime="0.00" waitingCount="0" stopTime="166.00" timeLoss="39.29" rerouteNo="2" devices="tripinfo_vehicle_39" vType="DEFAULT_VEHTYPE@vehicle_39" speedFactor="0.90" vaporized=""/>
    <tripinfo id="vehicle_51" depart="410.00" departLane="E73_0" departPos="0.00" departSpeed="0.10" departDelay="0.00" arrival="765.00" arrivalLane="E86_0" arrivalPos="183.31" arrivalSpeed="5.15" duration="355.00" routeLength="1105.42" waitingTime="0.00" waitingCount="0" stopTime="143.00" timeLoss="27.76" rerouteNo="2" devices="tripinfo_vehicle_51" vType="DEFAULT_VEHTYPE@vehicle_51" speedFactor="1.17" vaporized=""/>
    <tripinfo id="vehicle_40" depart="300.00" departLane="-E72_0" departPos="0.00" departSpeed="0.10" departDelay="0.00" arrival="771.00" arrivalLane="E86_0" arrivalPos="183.31" arrivalSpeed="5.60" duration="471.00" routeLength="2048.26" waitingTime="0.00" waitingCount="0" stopTime="82.00" timeLoss="46.85" rerouteNo="2" devices="tripinfo_vehicle_40" vType="DEFAULT_VEHTYPE@vehicle_40" speedFactor="1.03" vaporized=""/>
    <tripinfo id="vehicle_44" depart="340.00" departLane="E82_0" departPos="0.00" departSpeed="0.10" departDelay="0.00" arrival="773.00" arrivalLane="E86_0" arrivalPos="183.31" arrivalSpeed="5.66" duration="433.00" routeLength="1334.86" waitingTime="3.00" waitingCount="1" stopTime="179.00" timeLoss="31.33" rerouteNo="2" devices="tripinfo_vehicle_44" vType="DEFAULT_VEHTYPE@vehicle_44" speedFactor="1.04" vaporized=""/>
    <tripinfo id="vehicle_26" depart="160.00" departLane="-E37_0" departPos="0.00" departSpeed="0.10" departDelay="0.00" arrival="777.00" arrivalLane="E86_0" arrivalPos="183.31" arrivalSpeed="4.78" duration="617.00" routeLength="2641.59" waitingTime="0.00" waitingCount="0" stopTime="112.00" timeLoss="62.86" rerouteNo="8" devices="tripinfo_vehicle_26" vType="DEFAULT_VEHTYPE@vehicle_26" speedFactor="0.92" vaporized=""/>
    <tripinfo id="vehicle_57" depart="470.00" departLane="E51_0" departPos="0.00" departSpeed="0.10" departDelay="0.00" arrival="787.00" arrivalLane="E86_0" arrivalPos="183.31" arrivalSpeed="5.12" duration="317.00" routeLength="1020.77" waitingTime="4.00" waitingCount="1" stopTime="114.00" timeLoss="32.36" rerouteNo="2" devices="tripinfo_vehicle_57" vType="DEFAULT_VEHTYPE@vehicle_57" speedFactor="1.14" vaporized=""/>
    <tripinfo id="vehicle_47" depart="370.00" departLane="-E54_0" departPos="0.00" departSpeed="0.10" departDelay="0.00" arrival="797.00" arrivalLane="E86_0" arrivalPos="183.31" arrivalSpeed="5.59" duration="427.00" routeLength="1473.97" waitingTime="0.00" waitingCount="0" stopTime="146.00" timeLoss="34.51" rerouteNo="3" devices="tripinfo_vehicle_47" vType="DEFAULT_VEHTYPE@vehicle_47" speedFactor="0.90" vaporized=""/>
    <tripinfo id="vehicle_28" depart="180.00" departLane="E69_0" departPos="0.00" departSpeed="0.10" departDelay="0.00" arrival="811.00" arrivalLane="E86_0" arrivalPos="183.31" arrivalSpeed="5.58" duration="631.00" routeLength="2873.26" waitingTime="1.00" waitingCount="1" stopTime="84.00" timeLoss="67.89" rerouteNo="15" devices="tripinfo_vehicle_28" vType="DEFAULT_VEHTYPE@vehicle_28" speedFactor="1.13" vaporized=""/>
    <tripinfo id="vehicle_54" depart="440.00" departLane="E31_0" departPos="0.00" departSpeed="0.10" departDelay="0.00" arrival="833.00" arrivalLane="E86_0" arrivalPos="183.31" arrivalSpeed="5.36" duration="393.00" routeLength="1431.94" waitingTime="4.00" waitingCount="1" stopTime="112.00" timeLoss="41.99" rerouteNo="9" devices="tripinfo_vehicle_54" vType="DEFAULT_VEHTYPE@vehicle_54" speedFactor="1.00" vaporized=""/>
    <tripinfo id="vehicle_55" depart="450.00" departLane="E82_0" departPos="0.00" departSpeed="0.10" departDelay="0.00" arrival="840.00" arrivalLane="E86_0" arrivalPos="183.31" arrivalSpeed="5.43" duration="390.00" routeLength="1120.83" waitingTime="0.00" waitingCount="0" stopTime="174.00" timeLoss="28.88" rerouteNo="2" devices="tripinfo_vehicle_55" vType="DEFAULT_VEHTYPE@vehicle_55" speedFactor="1.00" vaporized=""/>
    <tripinfo id="vehicle_41" depart="310.00" departLane="E75_0" departPos="0.00" departSpeed="0.10" departDelay="0.00" arrival="843.00" arrivalLane="E86_0" arrivalPos="183.31" arrivalSpeed="4.94" duration="533.00" routeLength="1988.96" waitingTime="5.00" waitingCount="1" stopTime="146.00" timeLoss="54.78" rerouteNo="2" devices="tripinfo_vehicle_41" vType="DEFAULT_VEHTYPE@vehicle_41" speedFactor="0.96" vaporized=""/>
    <tripinfo id="vehicle_53" depart="430.00" departLane="E12_0" departPos="0.00" departSpeed="0.10" departDelay="0.00" arrival="862.00" arrivalLane="E86_0" arrivalPos="183.31" arrivalSpeed="4.95" duration="432.00" routeLength="1701.90" waitingTime="13.00" waitingCount="2" stopTime="91.00" timeLoss="56.68" rerouteNo="2" devices="tripinfo_vehicle_53" vType="DEFAULT_VEHTYPE@vehicle_53" speedFactor="1.10" vaporized=""/>
    <tripinfo id="vehicle_50" depart="400.00" departLane="-E72_0" departPos="0.00" departSpeed="0.10" departDelay="0.00" arrival="871.00" arrivalLane="E86_0" arrivalPos="183.31" arrivalSpeed="5.70" duration="471.00" routeLength="2048.26" waitingTime="0.00" waitingCount="0" stopTime="81.00" timeLoss="47.33" rerouteNo="2" devices="tripinfo_vehicle_50" vType="DEFAULT_VEHTYPE@vehicle_50" speedFactor="0.85" vaporized=""/>
    <tripinfo id="vehicle_68" depart="580.00" departLane="E76_0" departPos="0.00" departSpeed="0.10" departDelay="0.00" arrival="909.00" arrivalLane="E86_0" arrivalPos="183.31" arrivalSpeed="4.78" duration="329.00" routeLength="1219.95" waitingTime="5.00" waitingCount="1" stopTime="96.00" timeLoss="29.66" rerouteNo="2" devices="tripinfo_vehicle_68" vType="DEFAULT_VEHTYPE@vehicle_68" speedFactor="1.04" vaporized=""/>
    <tripinfo id="vehicle_49" depart="390.00" departLane="-E55_0" departPos="0.00" departSpeed="0.10" departDelay="0.00" arrival="928.00" arrivalLane="E86_0" arrivalPos="183.31" arrivalSpeed="5.24" duration="538.00" routeLength="1858.81" waitingTime="4.00" waitingCount="1" stopTime="179.00" timeLoss="48.09" rerouteNo="2" devices="tripinfo_vehicle_49" vType="DEFAULT_VEHTYPE@vehicle_49" speedFactor="0.85" vaporized=""/>
    <tripinfo id="vehicle_69" depart="590.00" departLane="-E84_0" departPos="0.00" departSpeed="0.10" departDelay="0.00" arrival="932.00" arrivalLane="E86_0" arrivalPos="183.31" arrivalSpeed="4.99" duration="342.00" routeLength="884.10" waitingTime="0.00" waitingCount="0" stopTime="172.00" timeLoss="22.67" rerouteNo="2" devices="tripinfo_vehicle_69" vType="DEFAULT_VEHTYPE@vehicle_69" speedFactor="1.02" vaporized=""/>
    <tripinfo id="vehicle_75" depart="650.00" departLane="-E44_0" departPos="0.00" departSpeed="0.10" departDelay="0.00" arrival="935.00" arrivalLane="E86_0" arrivalPos="183.31" arrivalSpeed="5.33" duration="285.00" routeLength="1029.78" waitingTime="5.00" waitingCount="2" stopTime="80.00" timeLoss="33.09" rerouteNo="4" devices="tripinfo_vehicle_75" vType="DEFAULT_VEHTYPE@vehicle_75" speedFactor="0.98" vaporized=""/>
    <tripinfo id="vehicle_52" depart="420.00" departLane="-E83_0" departPos="0.00" departSpeed="0.10" departDelay="0.00" arrival="938.00" arrivalLane="E86_0" arrivalPos="183.31" arrivalSpeed="5.52" duration="518.00" routeLength="1882.15" waitingTime="3.00" waitingCount="1" stopTime="150.00" timeLoss="53.19" rerouteNo="2" devices="tripinfo_vehicle_52" vType="DEFAULT_VEHTYPE@vehicle_52" speedFactor="1.02" vaporized=""/>
    <tripinfo id="vehicle_65" depart="558.00" departLane="E67_0" departPos="0.00" departSpeed="0.10" departDelay="8.00" arrival="941.00" arrivalLane="E86_0" arrivalPos="183.31" arrivalSpeed="5.22" duration="383.00" routeLength="1249.35" waitingTime="14.00" waitingCount="2" stopTime="118.00" timeLoss="55.69" rerouteNo="7" devices="tripinfo_vehicle_65" vType="DEFAULT_VEHTYPE@vehicle_65" speedFactor="0.88" vaporized=""/>
    <tripinfo id="vehicle_64" depart="540.00" departLane="-E55_0" departPos="0.00" departSpeed="0.10" departDelay="0.00" arrival="950.00" arrivalLane="E86_0" arrivalPos="183.31" arrivalSpeed="4.90" duration="410.00" routeLength="1593.01" waitingTime="6.00" waitingCount="2" stopTime="98.00" timeLoss="46.18" rerouteNo="8" devices="tripinfo_vehicle_64" vType="DEFAULT_VEHTYPE@vehicle_64" speedFactor="0.94" vaporized=""/>
    <tripinfo id="vehicle_61" depart="510.00" departLane="-E55_0" departPos="0.00" departSpeed="0.10" departDelay="0.00" arrival="955.00" arrivalLane="E86_0" arrivalPos="183.31" arrivalSpeed="5.50" duration="445.00" routeLength="1706.07" waitingTime="1.00" waitingCount="1" stopTime="118.00" timeLoss="41.78" rerouteNo="11" devices="tripinfo_vehicle_61" vType="DEFAULT_VEHTYPE@vehicle_61" speedFactor="1.12" vaporized=""/>
    <tripinfo id="vehicle_59" depart="490.00" departLane="E62_0" departPos="0.00" departSpeed="0.10" departDelay="0.00" arrival="959.00" arrivalLane="E86_0" arrivalPos="183.31" arrivalSpeed="5.76" duration="469.00" routeLength="1683.76" waitingTime="0.00" waitingCount="0" stopTime="148.00" timeLoss="40.16" rerouteNo="3" devices="tripinfo_vehicle_59" vType="DEFAULT_VEHTYPE@vehicle_59" speedFactor="0.97" vaporized=""/>
    <tripinfo id="vehicle_67" depart="570.00" departLane="E67_0" departPos="0.00" departSpeed="0.10" departDelay="0.00" arrival="970.00" arrivalLane="E86_0" arrivalPos="183.31" arrivalSpeed="5.54" duration="400.00" routeLength="1198.68" waitingTime="0.00" waitingCount="0" stopTime="170.00" timeLoss="28.77" rerouteNo="3" devices="tripinfo_vehicle_67" vType="DEFAULT_VEHTYPE@vehicle_67" speedFactor="0.91" vaporized=""/>
    <tripinfo id="vehicle_72" depart="620.00" departLane="-E72_0" departPos="0.00" departSpeed="0.10" departDelay="0.00" arrival="975.00" arrivalLane="E86_0" arrivalPos="183.31" arrivalSpeed="5.44" duration="355.00" routeLength="905.29" waitingTime="18.00" waitingCount="1" stopTime="162.00" timeLoss="41.98" rerouteNo="2" devices="tripinfo_vehicle_72" vType="DEFAULT_VEHTYPE@vehicle_72" speedFactor="0.94" vaporized=""/>
    <tripinfo id="vehicle_70" depart="600.00" departLane="E52_0" departPos="0.00" departSpeed="0.10" departDelay="0.00" arrival="990.00" arrivalLane="E86_0" arrivalPos="183.31" arrivalSpeed="5.10" duration="390.00" routeLength="1512.48" waitingTime="0.00" waitingCount="0" stopTime="101.00" timeLoss="36.32" rerouteNo="2" devices="tripinfo_vehicle_70" vType="DEFAULT_VEHTYPE@vehicle_70" speedFactor="1.02" vaporized=""/>