<?xml version="1.0" encoding="UTF-8"?>

<!-- generated on 2024-10-23 19:08:48 by Eclipse SUMO GUI Version v1_20_0+2013-dea7f8276dd
<sumoConfiguration xmlns:xsi="http://www.w3.org/2001/XMLSchema-instance" xsi:noNamespaceSchemaLocation="http://sumo.dlr.de/xsd/sumoConfiguration.xsd">

    <input>
        <net-file value="parking_on_off_road.net.xml"/>
        <additional-files value="parking_on_off_road.add.xml"/>
    </input>

    <output>
        <tripinfo-output value="tripinfo_0.5_1.xml"/>
    </output>

    <traci_server>
        <remote-port value="49541"/>
    </traci_server>

    <gui_only>
        <quit-on-end value="true"/>
        <start value="true"/>
    </gui_only>

</sumoConfiguration>
-->

<tripinfos xmlns:xsi="http://www.w3.org/2001/XMLSchema-instance" xsi:noNamespaceSchemaLocation="http://sumo.dlr.de/xsd/tripinfo_file.xsd">
    <tripinfo id="vehicle_0" depart="0.00" departLane="E63_0" departPos="0.00" departSpeed="14.72" departDelay="0.00" arrival="264.00" arrivalLane="-E30_0" arrivalPos="76.00" arrivalSpeed="14.23" duration="264.00" routeLength="2530.91" waitingTime="0.00" waitingCount="0" stopTime="0.00" timeLoss="83.78" rerouteNo="23" devices="tripinfo_vehicle_0" vType="DEFAULT_VEHTYPE" speedFactor="1.06" vaporized=""/>
    <tripinfo id="vehicle_7" depart="60.00" departLane="E73_0" departPos="0.00" departSpeed="0.10" departDelay="0.00" arrival="267.00" arrivalLane="E86_0" arrivalPos="183.31" arrivalSpeed="5.60" duration="207.00" routeLength="1105.42" waitingTime="0.00" waitingCount="0" stopTime="0.00" timeLoss="22.43" rerouteNo="3" devices="tripinfo_vehicle_7" vType="DEFAULT_VEHTYPE@vehicle_7" speedFactor="0.89" vaporized=""/>
    <tripinfo id="vehicle_3" depart="20.00" departLane="-E78_0" departPos="0.00" departSpeed="0.10" departDelay="0.00" arrival="308.00" arrivalLane="E86_0" arrivalPos="183.31" arrivalSpeed="5.24" duration="288.00" routeLength="1147.55" waitingTime="0.00" waitingCount="0" stopTime="70.00" timeLoss="26.03" rerouteNo="7" devices="tripinfo_vehicle_3" vType="DEFAULT_VEHTYPE@vehicle_3" speedFactor="1.08" vaporized=""/>
    <tripinfo id="vehicle_6" depart="50.00" departLane="-E31_0" departPos="0.00" departSpeed="0.10" departDelay="0.00" arrival="361.00" arrivalLane="E86_0" arrivalPos="183.31" arrivalSpeed="5.54" duration="311.00" routeLength="1263.99" waitingTime="0.00" waitingCount="0" stopTime="70.00" timeLoss="30.11" rerouteNo="5" devices="tripinfo_vehicle_6" vType="DEFAULT_VEHTYPE@vehicle_6" speedFactor="1.05" vaporized=""/>
    <tripinfo id="vehicle_5" depart="40.00" departLane="-E53_0" departPos="0.00" departSpeed="0.10" departDelay="0.00" arrival="392.00" arrivalLane="E86_0" arrivalPos="183.31" arrivalSpeed="4.80" duration="352.00" routeLength="1469.08" waitingTime="0.00" waitingCount="0" stopTime="70.00" timeLoss="36.49" rerouteNo="3" devices="tripinfo_vehicle_5" vType="DEFAULT_VEHTYPE@vehicle_5" speedFactor="0.83" vaporized=""/>
    <tripinfo id="vehicle_4" depart="30.00" departLane="E57_0" departPos="0.00" departSpeed="0.10" departDelay="0.00" arrival="395.00" arrivalLane="E86_0" arrivalPos="183.31" arrivalSpeed="5.00" duration="365.00" routeLength="1527.39" waitingTime="1.00" waitingCount="1" stopTime="71.00" timeLoss="38.70" rerouteNo="3" devices="tripinfo_vehicle_4" vType="DEFAULT_VEHTYPE@vehicle_4" speedFactor="1.03" vaporized=""/>
    <tripinfo id="vehicle_17" depart="160.00" departLane="E44_0" departPos="0.00" departSpeed="0.10" departDelay="0.00" arrival="408.00" arrivalLane="E86_0" arrivalPos="183.31" arrivalSpeed="5.31" duration="248.00" routeLength="935.26" waitingTime="0.00" waitingCount="0" stopTime="70.00" timeLoss="21.55" rerouteNo="3" devices="tripinfo_vehicle_17" vType="DEFAULT_VEHTYPE@vehicle_17" speedFactor="0.94" vaporized=""/>
    <tripinfo id="vehicle_16" depart="150.00" departLane="E43_0" departPos="0.00" departSpeed="0.10" departDelay="0.00" arrival="416.00" arrivalLane="E86_0" arrivalPos="183.31" arrivalSpeed="5.60" duration="266.00" routeLength="1021.47" waitingTime="1.00" waitingCount="1" stopTime="70.00" timeLoss="25.23" rerouteNo="3" devices="tripinfo_vehicle_16" vType="DEFAULT_VEHTYPE@vehicle_16" speedFactor="0.88" vaporized=""/>
    <tripinfo id="vehicle_1" depart="0.00" departLane="E42_0" departPos="0.00" departSpeed="0.10" departDelay="0.00" arrival="429.00" arrivalLane="E86_0" arrivalPos="183.31" arrivalSpeed="4.98" duration="429.00" routeLength="1876.62" waitingTime="0.00" waitingCount="0" stopTime="70.00" timeLoss="45.22" rerouteNo="4" devices="tripinfo_vehicle_1" vType="DEFAULT_VEHTYPE@vehicle_1" speedFactor="0.94" vaporized=""/>
    <tripinfo id="vehicle_8" depart="70.00" departLane="-E66_0" departPos="0.00" departSpeed="0.10" departDelay="0.00" arrival="451.00" arrivalLane="E86_0" arrivalPos="183.31" arrivalSpeed="4.89" duration="381.00" routeLength="1632.76" waitingTime="0.00" waitingCount="0" stopTime="70.00" timeLoss="37.97" rerouteNo="8" devices="tripinfo_vehicle_8" vType="DEFAULT_VEHTYPE@vehicle_8" speedFactor="0.94" vaporized=""/>
    <tripinfo id="vehicle_9" depart="80.00" departLane="E33_0" departPos="0.00" departSpeed="0.10" departDelay="0.00" arrival="486.00" arrivalLane="E86_0" arrivalPos="183.31" arrivalSpeed="5.17" duration="406.00" routeLength="1767.70" waitingTime="0.00" waitingCount="0" stopTime="70.00" timeLoss="40.71" rerouteNo="4" devices="tripinfo_vehicle_9" vType="DEFAULT_VEHTYPE@vehicle_9" speedFactor="0.86" vaporized=""/>
    <tripinfo id="vehicle_2" depart="10.00" departLane="-E55_0" departPos="0.00" departSpeed="0.10" departDelay="0.00" arrival="502.00" arrivalLane="E86_0" arrivalPos="183.31" arrivalSpeed="5.93" duration="492.00" routeLength="2227.73" waitingTime="0.00" waitingCount="0" stopTime="70.00" timeLoss="50.00" rerouteNo="8" devices="tripinfo_vehicle_2" vType="DEFAULT_VEHTYPE@vehicle_2" speedFactor="1.01" vaporized=""/>
    <tripinfo id="vehicle_10" depart="90.00" departLane="-E54_0" departPos="0.00" departSpeed="0.10" departDelay="0.00" arrival="507.00" arrivalLane="E86_0" arrivalPos="183.31" arrivalSpeed="4.75" duration="417.00" routeLength="1843.17" waitingTime="0.00" waitingCount="0" stopTime="70.00" timeLoss="39.80" rerouteNo="2" devices="tripinfo_vehicle_10" vType="DEFAULT_VEHTYPE@vehicle_10" speedFactor="1.09" vaporized=""/>
    <tripinfo id="vehicle_19" depart="180.00" departLane="-E63_0" departPos="0.00" departSpeed="0.10" departDelay="0.00" arrival="525.00" arrivalLane="E86_0" arrivalPos="183.31" arrivalSpeed="5.43" duration="345.00" routeLength="1417.23" waitingTime="0.00" waitingCount="0" stopTime="70.00" timeLoss="38.46" rerouteNo="3" devices="tripinfo_vehicle_19" vType="DEFAULT_VEHTYPE@vehicle_19" speedFactor="1.16" vaporized=""/>
    <tripinfo id="vehicle_22" depart="210.00" departLane="-E54_0" departPos="0.00" departSpeed="0.10" departDelay="0.00" arrival="529.00" arrivalLane="E86_0" arrivalPos="183.31" arrivalSpeed="5.60" duration="319.00" routeLength="1295.56" waitingTime="0.00" waitingCount="0" stopTime="70.00" timeLoss="32.26" rerouteNo="3" devices="tripinfo_vehicle_22" vType="DEFAULT_VEHTYPE@vehicle_22" speedFactor="0.97" vaporized=""/>
    <tripinfo id="vehicle_26" depart="250.00" departLane="-E32_0" departPos="0.00" departSpeed="0.10" departDelay="0.00" arrival="534.00" arrivalLane="E86_0" arrivalPos="183.31" arrivalSpeed="5.88" duration="284.00" routeLength="1082.54" waitingTime="0.00" waitingCount="0" stopTime="70.00" timeLoss="31.77" rerouteNo="3" devices="tripinfo_vehicle_26" vType="DEFAULT_VEHTYPE@vehicle_26" speedFactor="0.92" vaporized=""/>
    <tripinfo id="vehicle_21" depart="200.00" departLane="-E72_0" departPos="0.00" departSpeed="0.10" departDelay="0.00" arrival="538.00" arrivalLane="E86_0" arrivalPos="183.31" arrivalSpeed="5.46" duration="338.00" routeLength="1361.94" waitingTime="2.00" waitingCount="1" stopTime="70.00" timeLoss="39.96" rerouteNo="3" devices="tripinfo_vehicle_21" vType="DEFAULT_VEHTYPE@vehicle_21" speedFactor="1.01" vaporized=""/>
    <tripinfo id="vehicle_23" depart="220.00" departLane="-E55_0" departPos="0.00" departSpeed="0.10" departDelay="0.00" arrival="566.00" arrivalLane="E86_0" arrivalPos="183.31" arrivalSpeed="5.34" duration="346.00" routeLength="1451.01" waitingTime="0.00" waitingCount="0" stopTime="70.00" timeLoss="33.79" rerouteNo="3" devices="tripinfo_vehicle_23" vType="DEFAULT_VEHTYPE@vehicle_23" speedFactor="0.89" vaporized=""/>
    <tripinfo id="vehicle_13" depart="120.00" departLane="-E14_0" departPos="0.00" departSpeed="0.10" departDelay="0.00" arrival="569.00" arrivalLane="E86_0" arrivalPos="183.31" arrivalSpeed="5.71" duration="449.00" routeLength="1947.85" waitingTime="0.00" waitingCount="0" stopTime="70.00" timeLoss="53.70" rerouteNo="4" devices="tripinfo_vehicle_13" vType="DEFAULT_VEHTYPE@vehicle_13" speedFactor="1.12" vaporized=""/>
    <tripinfo id="vehicle_28" depart="270.00" departLane="-E68_0" departPos="0.00" departSpeed="0.10" departDelay="0.00" arrival="585.00" arrivalLane="E86_0" arrivalPos="183.31" arrivalSpeed="5.94" duration="315.00" routeLength="1276.08" waitingTime="1.00" waitingCount="1" stopTime="70.00" timeLoss="31.34" rerouteNo="3" devices="tripinfo_vehicle_28" vType="DEFAULT_VEHTYPE@vehicle_28" speedFactor="1.13" vaporized=""/>
    <tripinfo id="vehicle_38" depart="370.00" departLane="E9_0" departPos="0.00" departSpeed="0.10" departDelay="0.00" arrival="588.00" arrivalLane="E86_0" arrivalPos="183.31" arrivalSpeed="5.73" duration="218.00" routeLength="743.96" waitingTime="0.00" waitingCount="0" stopTime="70.00" timeLoss="23.96" rerouteNo="2" devices="tripinfo_vehicle_38" vType="DEFAULT_VEHTYPE@vehicle_38" speedFactor="1.10" vaporized=""/>
    <tripinfo id="vehicle_47" depart="460.00" departLane="E60_0" departPos="0.00" departSpeed="0.10" departDelay="0.00" arrival="594.00" arrivalLane="-E40_0" arrivalPos="89.06" arrivalSpeed="5.55" duration="134.00" routeLength="674.18" waitingTime="0.00" waitingCount="0" stopTime="0.00" timeLoss="21.49" rerouteNo="1" devices="tripinfo_vehicle_47" vType="DEFAULT_VEHTYPE@vehicle_47" speedFactor="0.90" vaporized=""/>
    <tripinfo id="vehicle_15" depart="140.00" departLane="-E15_0" departPos="0.00" departSpeed="0.10" departDelay="0.00" arrival="601.00" arrivalLane="E86_0" arrivalPos="183.31" arrivalSpeed="4.97" duration="461.00" routeLength="2046.82" waitingTime="0.00" waitingCount="0" stopTime="70.00" timeLoss="48.93" rerouteNo="12" devices="tripinfo_vehicle_15" vType="DEFAULT_VEHTYPE@vehicle_15" speedFactor="0.93" vaporized=""/>
    <tripinfo id="vehicle_27" depart="260.00" departLane="-E39_0" departPos="0.00" departSpeed="0.10" departDelay="0.00" arrival="605.00" arrivalLane="E86_0" arrivalPos="183.31" arrivalSpeed="5.26" duration="345.00" routeLength="1418.50" waitingTime="0.00" waitingCount="0" stopTime="70.00" timeLoss="37.40" rerouteNo="2" devices="tripinfo_vehicle_27" vType="DEFAULT_VEHTYPE@vehicle_27" speedFactor="0.95" vaporized=""/>
    <tripinfo id="vehicle_29" depart="281.00" departLane="-E55_0" departPos="0.00" departSpeed="0.10" departDelay="1.00" arrival="629.00" arrivalLane="E86_0" arrivalPos="183.31" arrivalSpeed="5.21" duration="348.00" routeLength="1441.96" waitingTime="1.00" waitingCount="1" stopTime="70.00" timeLoss="36.03" rerouteNo="3" devices="tripinfo_vehicle_29" vType="DEFAULT_VEHTYPE@vehicle_29" speedFactor="0.93" vaporized=""/>
    <tripinfo id="vehicle_24" depart="230.00" departLane="E60_0" departPos="0.00" departSpeed="0.10" departDelay="0.00" arrival="635.00" arrivalLane="E86_0" arrivalPos="183.31" arrivalSpeed="5.72" duration="405.00" routeLength="1661.97" waitingTime="7.00" waitingCount="2" stopTime="74.00" timeLoss="52.19" rerouteNo="6" devices="tripinfo_vehicle_24" vType="DEFAULT_VEHTYPE@vehicle_24" speedFactor="0.83" vaporized=""/>
    <tripinfo id="vehicle_33" depart="320.00" departLane="-E7_0" departPos="0.00" departSpeed="0.10" departDelay="0.00" arrival="638.00" arrivalLane="E86_0" arrivalPos="183.31" arrivalSpeed="5.35" duration="318.00" routeLength="1242.87" waitingTime="4.00" waitingCount="3" stopTime="70.00" timeLoss="40.52" rerouteNo="4" devices="tripinfo_vehicle_33" vType="DEFAULT_VEHTYPE@vehicle_33" speedFactor="1.17" vaporized=""/>
    <tripinfo id="vehicle_14" depart="130.00" departLane="E42_0" departPos="0.00" departSpeed="0.10" departDelay="0.00" arrival="650.00" arrivalLane="E86_0" arrivalPos="183.31" arrivalSpeed="5.06" duration="520.00" routeLength="2350.99" waitingTime="6.00" waitingCount="2" stopTime="70.00" timeLoss="57.67" rerouteNo="5" devices="tripinfo_vehicle_14" vType="DEFAULT_VEHTYPE@vehicle_14" speedFactor="0.99" vaporized=""/>
    <tripinfo id="vehicle_35" depart="340.00" departLane="-E74_0" departPos="0.00" departSpeed="0.10" departDelay="0.00" arrival="659.00" arrivalLane="E86_0" arrivalPos="183.31" arrivalSpeed="5.72" duration="319.00" routeLength="1312.10" waitingTime="0.00" waitingCount="0" stopTime="70.00" timeLoss="30.27" rerouteNo="2" devices="tripinfo_vehicle_35" vType="DEFAULT_VEHTYPE@vehicle_35" speedFactor="1.02" vaporized=""/>
    <tripinfo id="vehicle_31" depart="300.00" departLane="E33_0" departPos="0.00" departSpeed="0.10" departDelay="0.00" arrival="674.00" arrivalLane="E86_0" arrivalPos="183.31" arrivalSpeed="5.31" duration="374.00" routeLength="1595.85" waitingTime="0.00" waitingCount="0" stopTime="70.00" timeLoss="37.31" rerouteNo="4" devices="tripinfo_vehicle_31" vType="DEFAULT_VEHTYPE@vehicle_31" speedFactor="1.15" vaporized=""/>
    <tripinfo id="vehicle_32" depart="310.00" departLane="-E56_0" departPos="0.00" departSpeed="0.10" departDelay="0.00" arrival="677.00" arrivalLane="E86_0" arrivalPos="183.31" arrivalSpeed="5.90" duration="367.00" routeLength="1527.82" waitingTime="0.00" waitingCount="0" stopTime="70.00" timeLoss="40.89" rerouteNo="3" devices="tripinfo_vehicle_32" vType="DEFAULT_VEHTYPE@vehicle_32" speedFactor="1.01" vaporized=""/>
    <tripinfo id="vehicle_30" depart="290.00" departLane="E82_0" departPos="0.00" departSpeed="0.10" departDelay="0.00" arrival="682.00" arrivalLane="E86_0" arrivalPos="183.31" arrivalSpeed="4.80" duration="392.00" routeLength="1696.39" waitingTime="0.00" waitingCount="0" stopTime="70.00" timeLoss="38.91" rerouteNo="3" devices="tripinfo_vehicle_30" vType="DEFAULT_VEHTYPE@vehicle_30" speedFactor="1.18" vaporized=""/>
    <tripinfo id="vehicle_36" depart="350.00" departLane="-E74_0" departPos="0.00" departSpeed="0.10" departDelay="0.00" arrival="685.00" arrivalLane="E86_0" arrivalPos="183.31" arrivalSpeed="4.91" duration="335.00" routeLength="1312.10" waitingTime="12.00" waitingCount="1" stopTime="70.00" timeLoss="45.81" rerouteNo="2" devices="tripinfo_vehicle_36" vType="DEFAULT_VEHTYPE@vehicle_36" speedFactor="0.97" vaporized=""/>
    <tripinfo id="vehicle_34" depart="330.00" departLane="E64_0" departPos="0.00" departSpeed="0.10" departDelay="0.00" arrival="688.00" arrivalLane="E86_0" arrivalPos="183.31" arrivalSpeed="4.81" duration="358.00" routeLength="1476.75" waitingTime="3.00" waitingCount="1" stopTime="70.00" timeLoss="41.52" rerouteNo="2" devices="tripinfo_vehicle_34" vType="DEFAULT_VEHTYPE@vehicle_34" speedFactor="0.99" vaporized=""/>
    <tripinfo id="vehicle_44" depart="430.00" departLane="-E16_0" departPos="0.00" departSpeed="0.10" departDelay="0.00" arrival="691.00" arrivalLane="E86_0" arrivalPos="183.31" arrivalSpeed="5.99" duration="261.00" routeLength="974.72" waitingTime="1.00" waitingCount="1" stopTime="71.00" timeLoss="26.81" rerouteNo="2" devices="tripinfo_vehicle_44" vType="DEFAULT_VEHTYPE@vehicle_44" speedFactor="1.04" vaporized=""/>
    <tripinfo id="vehicle_45" depart="440.00" departLane="E67_0" departPos="0.00" departSpeed="0.10" departDelay="0.00" arrival="700.00" arrivalLane="E86_0" arrivalPos="183.31" arrivalSpeed="5.61" duration="260.00" routeLength="971.57" waitingTime="4.00" waitingCount="1" stopTime="74.00" timeLoss="23.59" rerouteNo="2" devices="tripinfo_vehicle_45" vType="DEFAULT_VEHTYPE@vehicle_45" speedFactor="1.09" vaporized=""/>
    <tripinfo id="vehicle_12" depart="110.00" departLane="-E45_0" departPos="0.00" departSpeed="0.10" departDelay="0.00" arrival="719.00" arrivalLane="E86_0" arrivalPos="183.31" arrivalSpeed="5.92" duration="609.00" routeLength="2805.56" waitingTime="8.00" waitingCount="1" stopTime="70.00" timeLoss="71.12" rerouteNo="10" devices="tripinfo_vehicle_12" vType="DEFAULT_VEHTYPE@vehicle_12" speedFactor="1.05" vaporized=""/>
    <tripinfo id="vehicle_37" depart="360.00" departLane="-E65_0" departPos="0.00" departSpeed="0.10" departDelay="0.00" arrival="723.00" arrivalLane="E86_0" arrivalPos="183.31" arrivalSpeed="5.14" duration="363.00" routeLength="1531.15" waitingTime="0.00" waitingCount="0" stopTime="70.00" timeLoss="37.69" rerouteNo="4" devices="tripinfo_vehicle_37" vType="DEFAULT_VEHTYPE@vehicle_37" speedFactor="1.18" vaporized=""/>
    <tripinfo id="vehicle_43" depart="420.00" departLane="-E55_0" departPos="0.00" departSpeed="0.10" departDelay="0.00" arrival="731.00" arrivalLane="E86_0" arrivalPos="183.31" arrivalSpeed="5.01" duration="311.00" routeLength="1214.85" waitingTime="8.00" waitingCount="1" stopTime="70.00" timeLoss="37.63" rerouteNo="2" devices="tripinfo_vehicle_43" vType="DEFAULT_VEHTYPE@vehicle_43" speedFactor="1.04" vaporized=""/>
    <tripinfo id="vehicle_39" depart="380.00" departLane="E79_0" departPos="0.00" departSpeed="0.10" departDelay="0.00" arrival="734.00" arrivalLane="E86_0" arrivalPos="183.31" arrivalSpeed="5.82" duration="354.00" routeLength="1488.21" waitingTime="0.00" waitingCount="0" stopTime="70.00" timeLoss="34.96" rerouteNo="3" devices="tripinfo_vehicle_39" vType="DEFAULT_VEHTYPE@vehicle_39" speedFactor="0.90" vaporized=""/>
    <tripinfo id="vehicle_49" depart="480.00" departLane="-E54_0" departPos="0.00" departSpeed="0.10" departDelay="0.00" arrival="762.00" arrivalLane="E86_0" arrivalPos="183.31" arrivalSpeed="5.18" duration="282.00" routeLength="1068.45" waitingTime="4.00" waitingCount="1" stopTime="74.00" timeLoss="28.04" rerouteNo="2" devices="tripinfo_vehicle_49" vType="DEFAULT_VEHTYPE@vehicle_49" speedFactor="0.85" vaporized=""/>
    <tripinfo id="vehicle_40" depart="390.00" departLane="-E7_0" departPos="0.00" departSpeed="0.10" departDelay="0.00" arrival="772.00" arrivalLane="E86_0" arrivalPos="183.31" arrivalSpeed="5.62" duration="382.00" routeLength="1581.08" waitingTime="8.00" waitingCount="1" stopTime="70.00" timeLoss="48.36" rerouteNo="2" devices="tripinfo_vehicle_40" vType="DEFAULT_VEHTYPE@vehicle_40" speedFactor="1.03" vaporized=""/>
    <tripinfo id="vehicle_56" depart="550.00" departLane="-E32_0" departPos="0.00" departSpeed="0.10" departDelay="0.00" arrival="777.00" arrivalLane="E86_0" arrivalPos="183.31" arrivalSpeed="5.59" duration="227.00" routeLength="774.17" waitingTime="4.00" waitingCount="1" stopTime="74.00" timeLoss="23.46" rerouteNo="2" devices="tripinfo_vehicle_56" vType="DEFAULT_VEHTYPE@vehicle_56" speedFactor="0.90" vaporized=""/>
    <tripinfo id="vehicle_42" depart="410.00" departLane="-E84_0" departPos="0.00" departSpeed="0.10" departDelay="0.00" arrival="780.00" arrivalLane="E86_0" arrivalPos="183.31" arrivalSpeed="5.69" duration="370.00" routeLength="1465.19" waitingTime="15.00" waitingCount="2" stopTime="70.00" timeLoss="55.63" rerouteNo="2" devices="tripinfo_vehicle_42" vType="DEFAULT_VEHTYPE@vehicle_42" speedFactor="1.09" vaporized=""/>
    <tripinfo id="vehicle_20" depart="190.00" departLane="E32_0" departPos="0.00" departSpeed="0.10" departDelay="0.00" arrival="784.00" arrivalLane="E86_0" arrivalPos="183.31" arrivalSpeed="5.92" duration="594.00" routeLength="2662.04" waitingTime="14.00" waitingCount="3" stopTime="70.00" timeLoss="79.76" rerouteNo="14" devices="tripinfo_vehicle_20" vType="DEFAULT_VEHTYPE@vehicle_20" speedFactor="1.02" vaporized=""/>
    <tripinfo id="vehicle_53" depart="520.00" departLane="E42_0" departPos="0.00" departSpeed="0.10" departDelay="0.00" arrival="788.00" arrivalLane="E86_0" arrivalPos="183.31" arrivalSpeed="5.67" duration="268.00" routeLength="1045.17" waitingTime="1.00" waitingCount="1" stopTime="70.00" timeLoss="23.70" rerouteNo="2" devices="tripinfo_vehicle_53" vType="DEFAULT_VEHTYPE@vehicle_53" speedFactor="1.10" vaporized=""/>
    <tripinfo id="vehicle_54" depart="530.00" departLane="-E52_0" departPos="0.00" departSpeed="0.10" departDelay="0.00" arrival="808.00" arrivalLane="E86_0" arrivalPos="183.31" arrivalSpeed="5.58" duration="278.00" routeLength="1050.20" waitingTime="0.00" waitingCount="0" stopTime="70.00" timeLoss="31.86" rerouteNo="3" devices="tripinfo_vehicle_54" vType="DEFAULT_VEHTYPE@vehicle_54" speedFactor="1.00" vaporized=""/>
    <tripinfo id="vehicle_18" depart="170.00" departLane="-E84_0" departPos="0.00" departSpeed="0.10" departDelay="0.00" arrival="816.00" arrivalLane="E86_0" arrivalPos="183.31" arrivalSpeed="4.90" duration="646.00" routeLength="3040.09" waitingTime="1.00" waitingCount="1" stopTime="70.00" timeLoss="68.06" rerouteNo="6" devices="tripinfo_vehicle_18" vType="DEFAULT_VEHTYPE@vehicle_18" speedFactor="0.94" vaporized=""/>
    <tripinfo id="vehicle_52" depart="510.00" departLane="-E56_0" departPos="0.00" departSpeed="0.10" departDelay="0.00" arrival="829.00" arrivalLane="E86_0" arrivalPos="183.31" arrivalSpeed="5.39" duration="319.00" routeLength="1300.71" waitingTime="0.00" waitingCount="0" stopTime="70.00" timeLoss="31.27" rerouteNo="2" devices="tripinfo_vehicle_52" vType="DEFAULT_VEHTYPE@vehicle_52" speedFactor="1.02" vaporized=""/>
    <tripinfo id="vehicle_25" depart="240.00" departLane="-E54_0" departPos="0.00" departSpeed="0.10" departDelay="0.00" arrival="833.00" arrivalLane="E86_0" arrivalPos="183.31" arrivalSpeed="5.84" duration="593.00" routeLength="2706.28" waitingTime="3.00" waitingCount="1" stopTime="70.00" timeLoss="69.49" rerouteNo="15" devices="tripinfo_vehicle_25" vType="DEFAULT_VEHTYPE@vehicle_25" speedFactor="0.87" vaporized=""/>
    <tripinfo id="vehicle_51" depart="500.00" departLane="-E7_0" departPos="0.00" departSpeed="0.10" departDelay="0.00" arrival="848.00" arrivalLane="E86_0" arrivalPos="183.31" arrivalSpeed="5.51" duration="348.00" routeLength="1408.17" waitingTime="2.00" waitingCount="1" stopTime="70.00" timeLoss="42.45" rerouteNo="2" devices="tripinfo_vehicle_51" vType="DEFAULT_VEHTYPE@vehicle_51" speedFactor="1.17" vaporized=""/>
    <tripinfo id="vehicle_62" depart="610.00" departLane="-E44_0" departPos="0.00" departSpeed="0.10" departDelay="0.00" arrival="875.00" arrivalLane="E86_0" arrivalPos="183.31" arrivalSpeed="5.83" duration="265.00" routeLength="1012.27" waitingTime="0.00" waitingCount="0" stopTime="70.00" timeLoss="25.47" rerouteNo="4" devices="tripinfo_vehicle_62" vType="DEFAULT_VEHTYPE@vehicle_62" speedFactor="1.02" vaporized=""/>
    <tripinfo id="vehicle_57" depart="560.00" departLane="-E74_0" departPos="0.00" departSpeed="0.10" departDelay="0.00" arrival="885.00" arrivalLane="E86_0" arrivalPos="183.31" arrivalSpeed="5.28" duration="325.00" routeLength="1325.02" waitingTime="0.00" waitingCount="0" stopTime="70.00" timeLoss="34.02" rerouteNo="6" devices="tripinfo_vehicle_57" vType="DEFAULT_VEHTYPE@vehicle_57" speedFactor="1.14" vaporized=""/>
    <tripinfo id="vehicle_46" depart="450.00" departLane="E70_0" departPos="0.00" departSpeed="0.10" departDelay="0.00" arrival="889.00" arrivalLane="E86_0" arrivalPos="183.31" arrivalSpeed="5.12" duration="439.00" routeLength="1923.03" waitingTime="1.00" waitingCount="1" stopTime="70.00" timeLoss="47.79" rerouteNo="11" devices="tripinfo_vehicle_46" vType="DEFAULT_VEHTYPE@vehicle_46" speedFactor="1.00" vaporized=""/>
    <tripinfo id="vehicle_60" depart="590.00" departLane="-E67_0" departPos="0.00" departSpeed="0.10" departDelay="0.00" arrival="915.00" arrivalLane="E86_0" arrivalPos="183.31" arrivalSpeed="5.96" duration="325.00" routeLength="1341.65" waitingTime="0.00" waitingCount="0" stopTime="70.00" timeLoss="30.54" rerouteNo="2" devices="tripinfo_vehicle_60" vType="DEFAULT_VEHTYPE@vehicle_60" speedFactor="1.08" vaporized=""/>
    <tripinfo id="vehicle_11" depart="100.00" departLane="-E54_0" departPos="0.00" departSpeed="0.10" departDelay="0.00" arrival="923.00" arrivalLane="E86_0" arrivalPos="183.31" arrivalSpeed="5.49" duration="823.00" routeLength="3958.61" waitingTime="4.00" waitingCount="2" stopTime="70.00" timeLoss="92.28" rerouteNo="29" devices="tripinfo_vehicle_11" vType="DEFAULT_VEHTYPE@vehicle_11" speedFactor="1.03" vaporized=""/>
    <tripinfo id="vehicle_58" depart="570.00" departLane="E82_0" departPos="0.00" departSpeed="0.10" departDelay="0.00" arrival="925.00" arrivalLane="E86_0" arrivalPos="183.31" arrivalSpeed="5.26" duration="355.00" routeLength="1397.56" waitingTime="9.00" waitingCount="3" stopTime="70.00" timeLoss="52.03" rerouteNo="2" devices="tripinfo_vehicle_58" vType="DEFAULT_VEHTYPE@vehicle_58" speedFactor="1.02" vaporized=""/>
    <tripinfo id="vehicle_69" depart="680.00" departLane="-E71_0" departPos="0.00" departSpeed="0.10" departDelay="0.00" arrival="936.00" arrivalLane="E86_0" arrivalPos="183.31" arrivalSpeed="5.17" duration="256.00" routeLength="965.46" waitingTime="0.00" waitingCount="0" stopTime="70.00" timeLoss="24.80" rerouteNo="2" devices="tripinfo_vehicle_69" vType="DEFAULT_VEHTYPE@vehicle_69" speedFactor="1.02" vaporized=""/>
    <tripinfo id="vehicle_64" depart="630.00" departLane="-E74_0" departPos="0.00" departSpeed="0.10" departDelay="0.00" arrival="950.00" arrivalLane="E86_0" arrivalPos="183.31" arrivalSpeed="5.76" duration="320.00" routeLength="1312.10" waitingTime="1.00" waitingCount="1" stopTime="70.00" timeLoss="30.41" rerouteNo="2" devices="tripinfo_vehicle_64" vType="DEFAULT_VEHTYPE@vehicle_64" speedFactor="0.94" vaporized=""/>
    <tripinfo id="vehicle_55" depart="540.00" departLane="E56_0" departPos="0.00" departSpeed="0.10" departDelay="0.00" arrival="953.00" arrivalLane="E86_0" arrivalPos="183.31" arrivalSpeed="4.93" duration="413.00" routeLength="1777.48" waitingTime="2.00" waitingCount="2" stopTime="70.00" timeLoss="45.51" rerouteNo="9" devices="tripinfo_vehicle_55" vType="DEFAULT_VEHTYPE@vehicle_55" speedFactor="1.00" vaporized=""/>
    <tripinfo id="vehicle_65" depart="640.00" departLane="-E54_0" departPos="0.00" departSpeed="0.10" departDelay="0.00" arrival="961.00" arrivalLane="E86_0" arrivalPos="183.31" arrivalSpeed="5.36" duration="321.00" routeLength="1295.56" waitingTime="0.00" waitingCount="0" stopTime="70.00" timeLoss="33.02" rerouteNo="5" devices="tripinfo_vehicle_65" vType="DEFAULT_VEHTYPE@vehicle_65" speedFactor="0.88" vaporized=""/>
    <tripinfo id="vehicle_75" depart="740.00" departLane="-E47_0" departPos="0.00" departSpeed="0.10" departDelay="0.00" arrival="963.00" arrivalLane="E86_0" arrivalPos="183.31" arrivalSpeed="5.19" duration="223.00" routeLength="772.51" waitingTime="3.00" waitingCount="2" stopTime="70.00" timeLoss="23.79" rerouteNo="2" devices="tripinfo_vehicle_75" vType="DEFAULT_VEHTYPE@vehicle_75" speedFactor="0.98" vaporized=""/>
    <tripinfo id="vehicle_48" depart="470.00" departLane="-E74_0" departPos="0.00" departSpeed="0.10" departDelay="0.00" arrival="974.00" arrivalLane="E86_0" arrivalPos="183.31" arrivalSpeed="4.78" duration="504.00" routeLength="2247.39" waitingTime="2.00" waitingCount="1" stopTime="70.00" timeLoss="58.48" rerouteNo="2" devices="tripinfo_vehicle_48" vType="DEFAULT_VEHTYPE@vehicle_48" speedFactor="0.88" vaporized=""/>
    <tripinfo id="vehicle_59" depart="580.00" departLane="-E14_0" departPos="0.00" departSpeed="0.10" departDelay="0.00" arrival="984.00" arrivalLane="E86_0" arrivalPos="183.31" arrivalSpeed="5.73" duration="404.00" routeLength="1665.80" waitingTime="11.00" waitingCount="3" stopTime="72.00" timeLoss="53.67" rerouteNo="2" devices="tripinfo_vehicle_59" vType="DEFAULT_VEHTYPE@vehicle_59" speedFactor="0.97" vaporized=""/>
    <tripinfo id="vehicle_66" depart="650.00" departLane="E60_0" departPos="0.00" departSpeed="0.10" departDelay="0.00" arrival="986.00" arrivalLane="E86_0" arrivalPos="183.31" arrivalSpeed="5.58" duration="336.00" routeLength="1351.10" waitingTime="4.00" waitingCount="1" stopTime="70.00" timeLoss="40.19" rerouteNo="2" devices="tripinfo_vehicle_66" vType="DEFAULT_VEHTYPE@vehicle_66" speedFactor="0.91" vaporized=""/>
    <tripinfo id="vehicle_61" depart="614.00" departLane="-E52_0" departPos="0.00" departSpeed="0.10" departDelay="14.00" arrival="990.00" arrivalLane="E86_0" arrivalPos="183.31" arrivalSpeed="5.94" duration="376.00" routeLength="1508.28" waitingTime="5.00" waitingCount="2" stopTime="70.00" timeLoss="53.95" rerouteNo="2" devices="tripinfo_vehicle_61" vType="DEFAULT_VEHTYPE@vehicle_61" speedFactor="1.12" vaporized=""/>
    <tripinfo id="vehicle_74" depart="730.00" departLane="E40_0" departPos="0.00" departSpeed="0.10" departDelay="0.00" arrival="993.00" arrivalLane="E86_0" arrivalPos="183.31" arrivalSpeed="5.66" duration="263.00" routeLength="803.86" waitingTime="24.00" waitingCount="4" stopTime="70.00" timeLoss="58.55" rerouteNo="2" devices="tripinfo_vehicle_74" vType="DEFAULT_VEHTYPE@vehicle_74" speedFactor="0.96" vaporized=""/>
    <tripinfo id="vehicle_68" depart="670.00" departLane="E54_0" departPos="0.00" departSpeed="0.10" departDelay="0.00" arrival="996.00" arrivalLane="E86_0" arrivalPos="183.31" arrivalSpeed="5.40" duration="326.00" routeLength="1196.45" waitingTime="17.00" waitingCount="2" stopTime="70.00" timeLoss="56.09" rerouteNo="2" devices="tripinfo_vehicle_68" vType="DEFAULT_VEHTYPE@vehicle_68" speedFactor="1.04" vaporized=""/>
    <tripinfo id="vehicle_67" depart="660.00" departLane="E76_0" departPos="0.00" departSpeed="0.10" departDelay="0.00" arrival="998.00" arrivalLane="E86_0" arrivalPos="183.31" arrivalSpeed="5.53" duration="338.00" routeLength="1282.65" waitingTime="14.00" waitingCount="4" stopTime="70.00" timeLoss="53.91" rerouteNo="2" devices="tripinfo_vehicle_67" vType="DEFAULT_VEHTYPE@vehicle_67" speedFactor="0.91" vaporized=""/>