<?xml version="1.0" encoding="UTF-8"?>

<!-- generated on 2024-10-23 19:08:03 by Eclipse SUMO GUI Version v1_20_0+2013-dea7f8276dd
<sumoConfiguration xmlns:xsi="http://www.w3.org/2001/XMLSchema-instance" xsi:noNamespaceSchemaLocation="http://sumo.dlr.de/xsd/sumoConfiguration.xsd">

    <input>
        <net-file value="parking_on_off_road.net.xml"/>
        <additional-files value="parking_on_off_road.add.xml"/>
    </input>

    <output>
        <tripinfo-output value="tripinfo_0.5_0.xml"/>
    </output>

    <traci_server>
        <remote-port value="42009"/>
    </traci_server>

    <gui_only>
        <quit-on-end value="true"/>
        <start value="true"/>
    </gui_only>

</sumoConfiguration>
-->

<tripinfos xmlns:xsi="http://www.w3.org/2001/XMLSchema-instance" xsi:noNamespaceSchemaLocation="http://sumo.dlr.de/xsd/tripinfo_file.xsd">
    <tripinfo id="vehicle_1" depart="0.00" departLane="E16_0" departPos="0.00" departSpeed="0.10" departDelay="0.00" arrival="95.00" arrivalLane="-E40_0" arrivalPos="89.06" arrivalSpeed="5.06" duration="95.00" routeLength="506.81" waitingTime="0.00" waitingCount="0" stopTime="0.00" timeLoss="10.40" rerouteNo="1" devices="tripinfo_vehicle_1" vType="DEFAULT_VEHTYPE@vehicle_1" speedFactor="0.94" vaporized=""/>
    <tripinfo id="vehicle_9" depart="80.00" departLane="E64_0" departPos="0.00" departSpeed="0.10" departDelay="0.00" arrival="195.00" arrivalLane="-E40_0" arrivalPos="89.06" arrivalSpeed="5.62" duration="115.00" routeLength="603.32" waitingTime="0.00" waitingCount="0" stopTime="0.00" timeLoss="13.66" rerouteNo="1" devices="tripinfo_vehicle_9" vType="DEFAULT_VEHTYPE@vehicle_9" speedFactor="0.86" vaporized=""/>
    <tripinfo id="vehicle_0" depart="0.00" departLane="E66_0" departPos="0.00" departSpeed="14.72" departDelay="0.00" arrival="271.00" arrivalLane="E86_0" arrivalPos="183.31" arrivalSpeed="14.43" duration="271.00" routeLength="1849.90" waitingTime="0.00" waitingCount="0" stopTime="70.00" timeLoss="67.87" rerouteNo="5" devices="tripinfo_vehicle_0" vType="DEFAULT_VEHTYPE" speedFactor="1.06" vaporized=""/>
    <tripinfo id="vehicle_3" depart="20.00" departLane="-E30_0" departPos="0.00" departSpeed="0.10" departDelay="0.00" arrival="305.00" arrivalLane="E86_0" arrivalPos="183.31" arrivalSpeed="4.99" duration="285.00" routeLength="1138.11" waitingTime="0.00" waitingCount="0" stopTime="70.00" timeLoss="25.18" rerouteNo="5" devices="tripinfo_vehicle_3" vType="DEFAULT_VEHTYPE@vehicle_3" speedFactor="1.08" vaporized=""/>
    <tripinfo id="vehicle_4" depart="30.00" departLane="-E63_0" departPos="0.00" departSpeed="0.10" departDelay="0.00" arrival="379.00" arrivalLane="E86_0" arrivalPos="183.31" arrivalSpeed="5.73" duration="349.00" routeLength="1417.23" waitingTime="4.00" waitingCount="2" stopTime="70.00" timeLoss="42.01" rerouteNo="5" devices="tripinfo_vehicle_4" vType="DEFAULT_VEHTYPE@vehicle_4" speedFactor="1.03" vaporized=""/>
    <tripinfo id="vehicle_2" depart="10.00" departLane="-E45_0" departPos="0.00" departSpeed="0.10" departDelay="0.00" arrival="395.00" arrivalLane="E86_0" arrivalPos="183.31" arrivalSpeed="5.47" duration="385.00" routeLength="1654.30" waitingTime="0.00" waitingCount="0" stopTime="70.00" timeLoss="38.65" rerouteNo="2" devices="tripinfo_vehicle_2" vType="DEFAULT_VEHTYPE@vehicle_2" speedFactor="1.01" vaporized=""/>
    <tripinfo id="vehicle_28" depart="270.00" departLane="-E33_0" departPos="0.00" departSpeed="0.10" departDelay="0.00" arrival="402.00" arrivalLane="E85_0" arrivalPos="193.34" arrivalSpeed="5.26" duration="132.00" routeLength="644.82" waitingTime="5.00" waitingCount="2" stopTime="0.00" timeLoss="24.49" rerouteNo="4" devices="tripinfo_vehicle_28" vType="DEFAULT_VEHTYPE@vehicle_28" speedFactor="1.13" vaporized=""/>
    <tripinfo id="vehicle_13" depart="124.00" departLane="-E47_0" departPos="0.00" departSpeed="0.10" departDelay="4.00" arrival="424.00" arrivalLane="E86_0" arrivalPos="183.31" arrivalSpeed="5.98" duration="300.00" routeLength="1150.89" waitingTime="3.00" waitingCount="1" stopTime="70.00" timeLoss="37.53" rerouteNo="2" devices="tripinfo_vehicle_13" vType="DEFAULT_VEHTYPE@vehicle_13" speedFactor="1.12" vaporized=""/>
    <tripinfo id="vehicle_8" depart="70.00" departLane="-E84_0" departPos="0.00" departSpeed="0.10" departDelay="0.00" arrival="444.00" arrivalLane="E86_0" arrivalPos="183.31" arrivalSpeed="5.75" duration="374.00" routeLength="1597.75" waitingTime="0.00" waitingCount="0" stopTime="70.00" timeLoss="37.06" rerouteNo="4" devices="tripinfo_vehicle_8" vType="DEFAULT_VEHTYPE@vehicle_8" speedFactor="0.94" vaporized=""/>
    <tripinfo id="vehicle_15" depart="140.00" departLane="-E64_0" departPos="0.00" departSpeed="0.10" departDelay="0.00" arrival="481.00" arrivalLane="E86_0" arrivalPos="183.31" arrivalSpeed="5.92" duration="341.00" routeLength="1377.31" waitingTime="9.00" waitingCount="2" stopTime="75.00" timeLoss="35.22" rerouteNo="2" devices="tripinfo_vehicle_15" vType="DEFAULT_VEHTYPE@vehicle_15" speedFactor="0.93" vaporized=""/>
    <tripinfo id="vehicle_14" depart="130.00" departLane="-E55_0" departPos="0.00" departSpeed="0.10" departDelay="0.00" arrival="485.00" arrivalLane="E86_0" arrivalPos="183.31" arrivalSpeed="4.97" duration="355.00" routeLength="1460.83" waitingTime="3.00" waitingCount="2" stopTime="72.00" timeLoss="39.29" rerouteNo="2" devices="tripinfo_vehicle_14" vType="DEFAULT_VEHTYPE@vehicle_14" speedFactor="0.99" vaporized=""/>
    <tripinfo id="vehicle_5" depart="40.00" departLane="-E55_0" departPos="0.00" departSpeed="0.10" departDelay="0.00" arrival="489.00" arrivalLane="E86_0" arrivalPos="183.31" arrivalSpeed="5.77" duration="449.00" routeLength="1989.57" waitingTime="0.00" waitingCount="0" stopTime="70.00" timeLoss="45.42" rerouteNo="2" devices="tripinfo_vehicle_5" vType="DEFAULT_VEHTYPE@vehicle_5" speedFactor="0.83" vaporized=""/>
    <tripinfo id="vehicle_30" depart="290.00" departLane="-E74_0" departPos="0.00" departSpeed="0.10" departDelay="0.00" arrival="499.00" arrivalLane="E86_0" arrivalPos="183.31" arrivalSpeed="4.81" duration="209.00" routeLength="731.01" waitingTime="0.00" waitingCount="0" stopTime="70.00" timeLoss="17.16" rerouteNo="2" devices="tripinfo_vehicle_30" vType="DEFAULT_VEHTYPE@vehicle_30" speedFactor="1.18" vaporized=""/>
    <tripinfo id="vehicle_16" depart="150.00" departLane="-E9_0" departPos="0.00" departSpeed="0.10" departDelay="0.00" arrival="503.00" arrivalLane="E86_0" arrivalPos="183.31" arrivalSpeed="5.17" duration="353.00" routeLength="1468.90" waitingTime="0.00" waitingCount="0" stopTime="70.00" timeLoss="36.91" rerouteNo="2" devices="tripinfo_vehicle_16" vType="DEFAULT_VEHTYPE@vehicle_16" speedFactor="0.88" vaporized=""/>
    <tripinfo id="vehicle_12" depart="110.00" departLane="-E31_0" departPos="0.00" departSpeed="0.10" departDelay="0.00" arrival="506.00" arrivalLane="E86_0" arrivalPos="183.31" arrivalSpeed="5.44" duration="396.00" routeLength="1709.07" waitingTime="0.00" waitingCount="0" stopTime="70.00" timeLoss="40.67" rerouteNo="4" devices="tripinfo_vehicle_12" vType="DEFAULT_VEHTYPE@vehicle_12" speedFactor="1.05" vaporized=""/>
    <tripinfo id="vehicle_17" depart="160.00" departLane="-E74_0" departPos="0.00" departSpeed="0.10" departDelay="0.00" arrival="515.00" arrivalLane="E86_0" arrivalPos="183.31" arrivalSpeed="5.32" duration="355.00" routeLength="1492.62" waitingTime="1.00" waitingCount="1" stopTime="70.00" timeLoss="35.94" rerouteNo="2" devices="tripinfo_vehicle_17" vType="DEFAULT_VEHTYPE@vehicle_17" speedFactor="0.94" vaporized=""/>
    <tripinfo id="vehicle_18" depart="170.00" departLane="-E55_0" departPos="0.00" departSpeed="0.10" departDelay="0.00" arrival="518.00" arrivalLane="E86_0" arrivalPos="183.31" arrivalSpeed="5.96" duration="348.00" routeLength="1460.83" waitingTime="0.00" waitingCount="0" stopTime="70.00" timeLoss="34.34" rerouteNo="2" devices="tripinfo_vehicle_18" vType="DEFAULT_VEHTYPE@vehicle_18" speedFactor="0.94" vaporized=""/>
    <tripinfo id="vehicle_21" depart="200.00" departLane="-E68_0" departPos="0.00" departSpeed="0.10" departDelay="0.00" arrival="530.00" arrivalLane="E86_0" arrivalPos="183.31" arrivalSpeed="5.04" duration="330.00" routeLength="1294.95" waitingTime="3.00" waitingCount="1" stopTime="70.00" timeLoss="43.09" rerouteNo="2" devices="tripinfo_vehicle_21" vType="DEFAULT_VEHTYPE@vehicle_21" speedFactor="1.01" vaporized=""/>
    <tripinfo id="vehicle_20" depart="190.00" departLane="-E55_0" departPos="0.00" departSpeed="0.10" departDelay="0.00" arrival="538.00" arrivalLane="E86_0" arrivalPos="183.31" arrivalSpeed="4.88" duration="348.00" routeLength="1460.83" waitingTime="0.00" waitingCount="0" stopTime="70.00" timeLoss="34.02" rerouteNo="2" devices="tripinfo_vehicle_20" vType="DEFAULT_VEHTYPE@vehicle_20" speedFactor="1.02" vaporized=""/>
    <tripinfo id="vehicle_6" depart="50.00" departLane="-E11_0" departPos="0.00" departSpeed="0.10" departDelay="0.00" arrival="541.00" arrivalLane="E86_0" arrivalPos="183.31" arrivalSpeed="5.29" duration="491.00" routeLength="2216.91" waitingTime="0.00" waitingCount="0" stopTime="70.00" timeLoss="50.64" rerouteNo="7" devices="tripinfo_vehicle_6" vType="DEFAULT_VEHTYPE@vehicle_6" speedFactor="1.05" vaporized=""/>
    <tripinfo id="vehicle_22" depart="210.00" departLane="E60_0" departPos="0.00" departSpeed="0.10" departDelay="0.00" arrival="545.00" arrivalLane="E86_0" arrivalPos="183.31" arrivalSpeed="5.72" duration="335.00" routeLength="1376.13" waitingTime="0.00" waitingCount="0" stopTime="70.00" timeLoss="35.09" rerouteNo="2" devices="tripinfo_vehicle_22" vType="DEFAULT_VEHTYPE@vehicle_22" speedFactor="0.97" vaporized=""/>
    <tripinfo id="vehicle_10" depart="90.00" departLane="E33_0" departPos="0.00" departSpeed="0.10" departDelay="0.00" arrival="582.00" arrivalLane="E86_0" arrivalPos="183.31" arrivalSpeed="4.99" duration="492.00" routeLength="2236.73" waitingTime="0.00" waitingCount="0" stopTime="70.00" timeLoss="48.73" rerouteNo="5" devices="tripinfo_vehicle_10" vType="DEFAULT_VEHTYPE@vehicle_10" speedFactor="1.09" vaporized=""/>
    <tripinfo id="vehicle_41" depart="400.00" departLane="-E43_0" departPos="0.00" departSpeed="0.10" departDelay="0.00" arrival="598.00" arrivalLane="E86_0" arrivalPos="183.31" arrivalSpeed="5.98" duration="198.00" routeLength="655.31" waitingTime="0.00" waitingCount="0" stopTime="70.00" timeLoss="18.44" rerouteNo="1" devices="tripinfo_vehicle_41" vType="DEFAULT_VEHTYPE@vehicle_41" speedFactor="0.96" vaporized=""/>
    <tripinfo id="vehicle_29" depart="280.00" departLane="-E54_0" departPos="0.00" departSpeed="0.10" departDelay="0.00" arrival="602.00" arrivalLane="E86_0" arrivalPos="183.31" arrivalSpeed="5.70" duration="322.00" routeLength="1314.43" waitingTime="0.00" waitingCount="0" stopTime="70.00" timeLoss="31.87" rerouteNo="2" devices="tripinfo_vehicle_29" vType="DEFAULT_VEHTYPE@vehicle_29" speedFactor="0.93" vaporized=""/>
    <tripinfo id="vehicle_7" depart="60.00" departLane="-E84_0" departPos="0.00" departSpeed="0.10" departDelay="0.00" arrival="604.00" arrivalLane="E86_0" arrivalPos="183.31" arrivalSpeed="5.86" duration="544.00" routeLength="2400.16" waitingTime="11.00" waitingCount="3" stopTime="70.00" timeLoss="73.33" rerouteNo="4" devices="tripinfo_vehicle_7" vType="DEFAULT_VEHTYPE@vehicle_7" speedFactor="0.89" vaporized=""/>
    <tripinfo id="vehicle_23" depart="220.00" departLane="E70_0" departPos="0.00" departSpeed="0.10" departDelay="0.00" arrival="610.00" arrivalLane="E86_0" arrivalPos="183.31" arrivalSpeed="5.07" duration="390.00" routeLength="1628.64" waitingTime="4.00" waitingCount="2" stopTime="70.00" timeLoss="47.27" rerouteNo="2" devices="tripinfo_vehicle_23" vType="DEFAULT_VEHTYPE@vehicle_23" speedFactor="0.89" vaporized=""/>
    <tripinfo id="vehicle_11" depart="100.00" departLane="E70_0" departPos="0.00" departSpeed="0.10" departDelay="0.00" arrival="624.00" arrivalLane="E86_0" arrivalPos="183.31" arrivalSpeed="5.08" duration="524.00" routeLength="2410.14" waitingTime="0.00" waitingCount="0" stopTime="70.00" timeLoss="51.52" rerouteNo="9" devices="tripinfo_vehicle_11" vType="DEFAULT_VEHTYPE@vehicle_11" speedFactor="1.03" vaporized=""/>
    <tripinfo id="vehicle_32" depart="310.00" departLane="E68_0" departPos="0.00" departSpeed="0.10" departDelay="0.00" arrival="627.00" arrivalLane="E86_0" arrivalPos="183.31" arrivalSpeed="5.61" duration="317.00" routeLength="1279.74" waitingTime="1.00" waitingCount="1" stopTime="70.00" timeLoss="32.92" rerouteNo="2" devices="tripinfo_vehicle_32" vType="DEFAULT_VEHTYPE@vehicle_32" speedFactor="1.01" vaporized=""/>
    <tripinfo id="vehicle_34" depart="330.00" departLane="E54_0" departPos="0.00" departSpeed="0.10" departDelay="0.00" arrival="643.00" arrivalLane="E86_0" arrivalPos="183.31" arrivalSpeed="4.82" duration="313.00" routeLength="1254.81" waitingTime="0.00" waitingCount="0" stopTime="70.00" timeLoss="33.28" rerouteNo="3" devices="tripinfo_vehicle_34" vType="DEFAULT_VEHTYPE@vehicle_34" speedFactor="0.99" vaporized=""/>
    <tripinfo id="vehicle_36" depart="351.00" departLane="-E71_0" departPos="0.00" departSpeed="0.10" departDelay="1.00" arrival="661.00" arrivalLane="E86_0" arrivalPos="183.31" arrivalSpeed="5.04" duration="310.00" routeLength="1264.29" waitingTime="0.00" waitingCount="0" stopTime="70.00" timeLoss="28.91" rerouteNo="2" devices="tripinfo_vehicle_36" vType="DEFAULT_VEHTYPE@vehicle_36" speedFactor="0.97" vaporized=""/>
    <tripinfo id="vehicle_19" depart="180.00" departLane="-E63_0" departPos="0.00" departSpeed="0.10" departDelay="0.00" arrival="692.00" arrivalLane="E86_0" arrivalPos="183.31" arrivalSpeed="5.35" duration="512.00" routeLength="2255.07" waitingTime="11.00" waitingCount="2" stopTime="70.00" timeLoss="65.41" rerouteNo="17" devices="tripinfo_vehicle_19" vType="DEFAULT_VEHTYPE@vehicle_19" speedFactor="1.16" vaporized=""/>
    <tripinfo id="vehicle_24" depart="230.00" departLane="E53_0" departPos="0.00" departSpeed="0.10" departDelay="0.00" arrival="702.00" arrivalLane="E86_0" arrivalPos="183.31" arrivalSpeed="5.78" duration="472.00" routeLength="2070.85" waitingTime="4.00" waitingCount="1" stopTime="74.00" timeLoss="50.88" rerouteNo="6" devices="tripinfo_vehicle_24" vType="DEFAULT_VEHTYPE@vehicle_24" speedFactor="0.83" vaporized=""/>
    <tripinfo id="vehicle_27" depart="260.00" departLane="-E40_0" departPos="0.00" departSpeed="0.10" departDelay="0.00" arrival="708.00" arrivalLane="E86_0" arrivalPos="183.31" arrivalSpeed="5.89" duration="448.00" routeLength="1865.64" waitingTime="15.00" waitingCount="2" stopTime="70.00" timeLoss="66.30" rerouteNo="3" devices="tripinfo_vehicle_27" vType="DEFAULT_VEHTYPE@vehicle_27" speedFactor="0.95" vaporized=""/>
    <tripinfo id="vehicle_44" depart="430.00" departLane="E82_0" departPos="0.00" departSpeed="0.10" departDelay="0.00" arrival="714.00" arrivalLane="E86_0" arrivalPos="183.31" arrivalSpeed="5.58" duration="284.00" routeLength="1120.83" waitingTime="0.00" waitingCount="0" stopTime="70.00" timeLoss="26.43" rerouteNo="2" devices="tripinfo_vehicle_44" vType="DEFAULT_VEHTYPE@vehicle_44" speedFactor="1.04" vaporized=""/>
    <tripinfo id="vehicle_31" depart="300.00" departLane="-E63_0" departPos="0.00" departSpeed="0.10" departDelay="0.00" arrival="717.00" arrivalLane="E86_0" arrivalPos="183.31" arrivalSpeed="5.28" duration="417.00" routeLength="1727.49" waitingTime="10.00" waitingCount="4" stopTime="70.00" timeLoss="58.49" rerouteNo="2" devices="tripinfo_vehicle_31" vType="DEFAULT_VEHTYPE@vehicle_31" speedFactor="1.15" vaporized=""/>
    <tripinfo id="vehicle_25" depart="240.00" departLane="-E78_0" departPos="0.00" departSpeed="0.10" departDelay="0.00" arrival="755.00" arrivalLane="E86_0" arrivalPos="183.31" arrivalSpeed="5.42" duration="515.00" routeLength="2238.56" waitingTime="10.00" waitingCount="2" stopTime="77.00" timeLoss="62.92" rerouteNo="3" devices="tripinfo_vehicle_25" vType="DEFAULT_VEHTYPE@vehicle_25" speedFactor="0.87" vaporized=""/>
    <tripinfo id="vehicle_43" depart="420.00" departLane="-E55_0" departPos="0.00" departSpeed="0.10" departDelay="0.00" arrival="768.00" arrivalLane="E86_0" arrivalPos="183.31" arrivalSpeed="5.44" duration="348.00" routeLength="1460.83" waitingTime="0.00" waitingCount="0" stopTime="70.00" timeLoss="34.18" rerouteNo="2" devices="tripinfo_vehicle_43" vType="DEFAULT_VEHTYPE@vehicle_43" speedFactor="1.04" vaporized=""/>
    <tripinfo id="vehicle_40" depart="390.00" departLane="-E74_0" departPos="0.00" departSpeed="0.10" departDelay="0.00" arrival="774.00" arrivalLane="E86_0" arrivalPos="183.31" arrivalSpeed="4.88" duration="384.00" routeLength="1656.04" waitingTime="0.00" waitingCount="0" stopTime="70.00" timeLoss="37.77" rerouteNo="8" devices="tripinfo_vehicle_40" vType="DEFAULT_VEHTYPE@vehicle_40" speedFactor="1.03" vaporized=""/>
    <tripinfo id="vehicle_39" depart="380.00" departLane="-E70_0" departPos="0.00" departSpeed="0.10" departDelay="0.00" arrival="782.00" arrivalLane="E86_0" arrivalPos="183.31" arrivalSpeed="5.35" duration="402.00" routeLength="1756.00" waitingTime="0.00" waitingCount="0" stopTime="70.00" timeLoss="38.29" rerouteNo="2" devices="tripinfo_vehicle_39" vType="DEFAULT_VEHTYPE@vehicle_39" speedFactor="0.90" vaporized=""/>
    <tripinfo id="vehicle_53" depart="520.00" departLane="E73_0" departPos="0.00" departSpeed="0.10" departDelay="0.00" arrival="786.00" arrivalLane="E86_0" arrivalPos="183.31" arrivalSpeed="4.83" duration="266.00" routeLength="1019.70" waitingTime="0.00" waitingCount="0" stopTime="70.00" timeLoss="25.78" rerouteNo="4" devices="tripinfo_vehicle_53" vType="DEFAULT_VEHTYPE@vehicle_53" speedFactor="1.10" vaporized=""/>
    <tripinfo id="vehicle_38" depart="370.00" departLane="E55_0" departPos="0.00" departSpeed="0.10" departDelay="0.00" arrival="791.00" arrivalLane="E86_0" arrivalPos="183.31" arrivalSpeed="4.94" duration="421.00" routeLength="1755.52" waitingTime="16.00" waitingCount="2" stopTime="70.00" timeLoss="58.38" rerouteNo="3" devices="tripinfo_vehicle_38" vType="DEFAULT_VEHTYPE@vehicle_38" speedFactor="1.10" vaporized=""/>
    <tripinfo id="vehicle_33" depart="320.00" departLane="-E72_0" departPos="0.00" departSpeed="0.10" departDelay="0.00" arrival="795.00" arrivalLane="E86_0" arrivalPos="183.31" arrivalSpeed="4.75" duration="475.00" routeLength="2037.87" waitingTime="13.00" waitingCount="2" stopTime="70.00" timeLoss="64.60" rerouteNo="2" devices="tripinfo_vehicle_33" vType="DEFAULT_VEHTYPE@vehicle_33" speedFactor="1.17" vaporized=""/>
    <tripinfo id="vehicle_26" depart="250.00" departLane="E71_0" departPos="0.00" departSpeed="0.10" departDelay="0.00" arrival="799.00" arrivalLane="E86_0" arrivalPos="183.31" arrivalSpeed="4.84" duration="549.00" routeLength="2509.71" waitingTime="0.00" waitingCount="0" stopTime="70.00" timeLoss="59.82" rerouteNo="2" devices="tripinfo_vehicle_26" vType="DEFAULT_VEHTYPE@vehicle_26" speedFactor="0.92" vaporized=""/>
    <tripinfo id="vehicle_45" depart="440.00" departLane="E32_0" departPos="0.00" departSpeed="0.10" departDelay="0.00" arrival="806.00" arrivalLane="E86_0" arrivalPos="183.31" arrivalSpeed="5.94" duration="366.00" routeLength="1543.08" waitingTime="0.00" waitingCount="0" stopTime="70.00" timeLoss="38.10" rerouteNo="2" devices="tripinfo_vehicle_45" vType="DEFAULT_VEHTYPE@vehicle_45" speedFactor="1.09" vaporized=""/>
    <tripinfo id="vehicle_35" depart="340.00" departLane="-E77_0" departPos="0.00" departSpeed="0.10" departDelay="0.00" arrival="820.00" arrivalLane="E86_0" arrivalPos="183.31" arrivalSpeed="5.86" duration="480.00" routeLength="2161.58" waitingTime="0.00" waitingCount="0" stopTime="70.00" timeLoss="49.39" rerouteNo="3" devices="tripinfo_vehicle_35" vType="DEFAULT_VEHTYPE@vehicle_35" speedFactor="1.02" vaporized=""/>
    <tripinfo id="vehicle_51" depart="500.00" departLane="-E64_0" departPos="0.00" departSpeed="0.10" departDelay="0.00" arrival="841.00" arrivalLane="E86_0" arrivalPos="183.31" arrivalSpeed="5.12" duration="341.00" routeLength="1427.78" waitingTime="1.00" waitingCount="1" stopTime="70.00" timeLoss="33.00" rerouteNo="3" devices="tripinfo_vehicle_51" vType="DEFAULT_VEHTYPE@vehicle_51" speedFactor="1.17" vaporized=""/>
    <tripinfo id="vehicle_54" depart="530.00" departLane="-E68_0" departPos="0.00" departSpeed="0.10" departDelay="0.00" arrival="846.00" arrivalLane="E86_0" arrivalPos="183.31" arrivalSpeed="4.71" duration="316.00" routeLength="1294.95" waitingTime="0.00" waitingCount="0" stopTime="70.00" timeLoss="29.84" rerouteNo="2" devices="tripinfo_vehicle_54" vType="DEFAULT_VEHTYPE@vehicle_54" speedFactor="1.00" vaporized=""/>
    <tripinfo id="vehicle_49" depart="480.00" departLane="E34_0" departPos="0.00" departSpeed="0.10" departDelay="0.00" arrival="855.00" arrivalLane="E86_0" arrivalPos="183.31" arrivalSpeed="5.23" duration="375.00" routeLength="1568.84" waitingTime="3.00" waitingCount="1" stopTime="72.00" timeLoss="40.67" rerouteNo="2" devices="tripinfo_vehicle_49" vType="DEFAULT_VEHTYPE@vehicle_49" speedFactor="0.85" vaporized=""/>
    <tripinfo id="vehicle_52" depart="510.00" departLane="-E32_0" departPos="0.00" departSpeed="0.10" departDelay="0.00" arrival="858.00" arrivalLane="E86_0" arrivalPos="183.31" arrivalSpeed="5.63" duration="348.00" routeLength="1401.00" waitingTime="3.00" waitingCount="1" stopTime="70.00" timeLoss="43.96" rerouteNo="2" devices="tripinfo_vehicle_52" vType="DEFAULT_VEHTYPE@vehicle_52" speedFactor="1.02" vaporized=""/>
    <tripinfo id="vehicle_37" depart="360.00" departLane="-E55_0" departPos="0.00" departSpeed="0.10" departDelay="0.00" arrival="863.00" arrivalLane="E86_0" arrivalPos="183.31" arrivalSpeed="5.10" duration="503.00" routeLength="2248.25" waitingTime="0.00" waitingCount="0" stopTime="70.00" timeLoss="57.85" rerouteNo="14" devices="tripinfo_vehicle_37" vType="DEFAULT_VEHTYPE@vehicle_37" speedFactor="1.18" vaporized=""/>
    <tripinfo id="vehicle_46" depart="450.00" departLane="-E54_0" departPos="0.00" departSpeed="0.10" departDelay="0.00" arrival="876.00" arrivalLane="E86_0" arrivalPos="183.31" arrivalSpeed="5.72" duration="426.00" routeLength="1843.17" waitingTime="1.00" waitingCount="1" stopTime="70.00" timeLoss="48.46" rerouteNo="2" devices="tripinfo_vehicle_46" vType="DEFAULT_VEHTYPE@vehicle_46" speedFactor="1.00" vaporized=""/>
    <tripinfo id="vehicle_42" depart="410.00" departLane="E69_0" departPos="0.00" departSpeed="0.10" departDelay="0.00" arrival="880.00" arrivalLane="E86_0" arrivalPos="183.31" arrivalSpeed="5.41" duration="470.00" routeLength="2075.42" waitingTime="4.00" waitingCount="1" stopTime="70.00" timeLoss="53.51" rerouteNo="2" devices="tripinfo_vehicle_42" vType="DEFAULT_VEHTYPE@vehicle_42" speedFactor="1.09" vaporized=""/>
    <tripinfo id="vehicle_50" depart="490.00" departLane="-E81_0" departPos="0.00" departSpeed="0.10" departDelay="0.00" arrival="883.00" arrivalLane="E86_0" arrivalPos="183.31" arrivalSpeed="5.14" duration="393.00" routeLength="1658.96" waitingTime="1.00" waitingCount="1" stopTime="70.00" timeLoss="45.29" rerouteNo="7" devices="tripinfo_vehicle_50" vType="DEFAULT_VEHTYPE@vehicle_50" speedFactor="0.85" vaporized=""/>
    <tripinfo id="vehicle_47" depart="460.00" departLane="-E67_0" departPos="0.00" departSpeed="0.10" departDelay="0.00" arrival="918.00" arrivalLane="E86_0" arrivalPos="183.31" arrivalSpeed="4.78" duration="458.00" routeLength="2049.15" waitingTime="3.00" waitingCount="1" stopTime="73.00" timeLoss="42.41" rerouteNo="2" devices="tripinfo_vehicle_47" vType="DEFAULT_VEHTYPE@vehicle_47" speedFactor="0.90" vaporized=""/>
    <tripinfo id="vehicle_58" depart="570.00" departLane="E40_0" departPos="0.00" departSpeed="0.10" departDelay="0.00" arrival="922.00" arrivalLane="E86_0" arrivalPos="183.31" arrivalSpeed="5.67" duration="352.00" routeLength="1435.44" waitingTime="3.00" waitingCount="1" stopTime="70.00" timeLoss="42.06" rerouteNo="2" devices="tripinfo_vehicle_58" vType="DEFAULT_VEHTYPE@vehicle_58" speedFactor="1.02" vaporized=""/>
    <tripinfo id="vehicle_55" depart="540.00" departLane="E67_0" departPos="0.00" departSpeed="0.10" departDelay="0.00" arrival="924.00" arrivalLane="E86_0" arrivalPos="183.31" arrivalSpeed="5.66" duration="384.00" routeLength="1635.42" waitingTime="0.00" waitingCount="0" stopTime="70.00" timeLoss="41.14" rerouteNo="2" devices="tripinfo_vehicle_55" vType="DEFAULT_VEHTYPE@vehicle_55" speedFactor="1.00" vaporized=""/>
    <tripinfo id="vehicle_62" depart="612.00" departLane="E84_0" departPos="0.00" departSpeed="0.10" departDelay="2.00" arrival="946.00" arrivalLane="E86_0" arrivalPos="183.31" arrivalSpeed="5.80" duration="334.00" routeLength="1337.53" waitingTime="5.00" waitingCount="2" stopTime="70.00" timeLoss="40.10" rerouteNo="4" devices="tripinfo_vehicle_62" vType="DEFAULT_VEHTYPE@vehicle_62" speedFactor="1.02" vaporized=""/>
    <tripinfo id="vehicle_65" depart="640.00" departLane="E50_0" departPos="0.00" departSpeed="0.10" departDelay="0.00" arrival="960.00" arrivalLane="E86_0" arrivalPos="183.31" arrivalSpeed="5.68" duration="320.00" routeLength="1311.32" waitingTime="0.00" waitingCount="0" stopTime="70.00" timeLoss="30.83" rerouteNo="3" devices="tripinfo_vehicle_65" vType="DEFAULT_VEHTYPE@vehicle_65" speedFactor="0.88" vaporized=""/>
    <tripinfo id="vehicle_59" depart="580.00" departLane="-E43_0" departPos="0.00" departSpeed="0.10" departDelay="0.00" arrival="971.00" arrivalLane="E86_0" arrivalPos="183.31" arrivalSpeed="5.84" duration="391.00" routeLength="1577.67" waitingTime="12.00" waitingCount="1" stopTime="70.00" timeLoss="57.06" rerouteNo="2" devices="tripinfo_vehicle_59" vType="DEFAULT_VEHTYPE@vehicle_59" speedFactor="0.97" vaporized=""/>
    <tripinfo id="vehicle_48" depart="470.00" departLane="-E74_0" departPos="0.00" departSpeed="0.10" departDelay="0.00" arrival="979.00" arrivalLane="E86_0" arrivalPos="183.31" arrivalSpeed="5.33" duration="509.00" routeLength="2249.14" waitingTime="1.00" waitingCount="1" stopTime="70.00" timeLoss="62.12" rerouteNo="3" devices="tripinfo_vehicle_48" vType="DEFAULT_VEHTYPE@vehicle_48" speedFactor="0.88" vaporized=""/>
    <tripinfo id="vehicle_61" depart="600.00" departLane="-E14_0" departPos="0.00" departSpeed="0.10" departDelay="0.00" arrival="988.00" arrivalLane="E86_0" arrivalPos="183.31" arrivalSpeed="5.73" duration="388.00" routeLength="1602.31" waitingTime="11.00" waitingCount="1" stopTime="70.00" timeLoss="50.37" rerouteNo="2" devices="tripinfo_vehicle_61" vType="DEFAULT_VEHTYPE@vehicle_61" speedFactor="1.12" vaporized=""/>
    <tripinfo id="vehicle_71" depart="700.00" departLane="-E42_0" departPos="0.00" departSpeed="0.10" departDelay="0.00" arrival="1010.00" arrivalLane="E86_0" arrivalPos="183.31" arrivalSpeed="4.93" duration="310.00" routeLength="1251.54" waitingTime="0.00" waitingCount="0" stopTime="70.00" timeLoss="30.58" rerouteNo="4" devices="tripinfo_vehicle_71" vType="DEFAULT_VEHTYPE@vehicle_71" speedFactor="0.97" vaporized=""/>
    <tripinfo id="vehicle_67" depart="660.00" departLane="E52_0" departPos="0.00" departSpeed="0.10" departDelay="0.00" arrival="1013.00" arrivalLane="E86_0" arrivalPos="183.31" arrivalSpeed="5.10" duration="353.00" routeLength="1455.69" waitingTime="3.00" waitingCount="2" stopTime="70.00" timeLoss="39.87" rerouteNo="2" devices="tripinfo_vehicle_67" vType="DEFAULT_VEHTYPE@vehicle_67" speedFactor="0.91" vaporized=""/>
    <tripinfo id="vehicle_72" depart="710.00" departLane="-E41_0" departPos="0.00" departSpeed="0.10" departDelay="0.00" arrival="1024.00" arrivalLane="E86_0" arrivalPos="183.31" arrivalSpeed="5.56" duration="314.00" routeLength="1237.44" waitingTime="3.00" waitingCount="1" stopTime="70.00" timeLoss="37.45" rerouteNo="2" devices="tripinfo_vehicle_72" vType="DEFAULT_VEHTYPE@vehicle_72" speedFactor="0.94" vaporized=""/>
    <tripinfo id="vehicle_63" depart="622.00" departLane="E71_0" departPos="0.00" departSpeed="0.10" departDelay="2.00" arrival="1030.00" arrivalLane="E86_0" arrivalPos="183.31" arrivalSpeed="4.80" duration="408.00" routeLength="1765.33" waitingTime="0.00" waitingCount="0" stopTime="70.00" timeLoss="42.91" rerouteNo="2" devices="tripinfo_vehicle_63" vType="DEFAULT_VEHTYPE@vehicle_63" speedFactor="0.99" vaporized=""/>
    <tripinfo id="vehicle_66" depart="650.00" departLane="E58_0" departPos="0.00" departSpeed="0.10" departDelay="0.00" arrival="1034.00" arrivalLane="E86_0" arrivalPos="183.31" arrivalSpeed="4.81" duration="384.00" routeLength="1602.93" waitingTime="0.00" waitingCount="0" stopTime="70.00" timeLoss="45.38" rerouteNo="2" devices="tripinfo_vehicle_66" vType="DEFAULT_VEHTYPE@vehicle_66" speedFactor="0.91" vaporized=""/>
    <tripinfo id="vehicle_56" depart="550.00" departLane="-E72_0" departPos="0.00" departSpeed="0.10" departDelay="0.00" arrival="1037.00" arrivalLane="E86_0" arrivalPos="183.31" arrivalSpeed="4.99" duration="487.00" routeLength="2060.39" waitingTime="14.00" waitingCount="3" stopTime="70.00" timeLoss="73.09" rerouteNo="7" devices="tripinfo_vehicle_56" vType="DEFAULT_VEHTYPE@vehicle_56" speedFactor="0.90" vaporized=""/>
    <tripinfo id="vehicle_70" depart="690.00" departLane="-E12_0" departPos="0.00" departSpeed="0.10" departDelay="0.00" arrival="1040.00" arrivalLane="E86_0" arrivalPos="183.31" arrivalSpeed="5.58" duration="350.00" routeLength="1459.48" waitingTime="0.00" waitingCount="0" stopTime="70.00" timeLoss="36.66" rerouteNo="7" devices="tripinfo_vehicle_70" vType="DEFAULT_VEHTYPE@vehicle_70" speedFactor="1.02" vaporized=""/>
    <tripinfo id="vehicle_76" depart="750.00" departLane="-E5_0" departPos="0.00" departSpeed="0.10" departDelay="0.00" arrival="1060.00" arrivalLane="E86_0" arrivalPos="183.31" arrivalSpeed="4.98" duration="310.00" routeLength="1207.17" waitingTime="3.00" waitingCount="1" stopTime="72.00" timeLoss="35.95" rerouteNo="2" devices="tripinfo_vehicle_76" vType="DEFAULT_VEHTYPE@vehicle_76" speedFactor="1.03" vaporized=""/>