<?xml version="1.0" encoding="UTF-8"?>

<!-- generated on 2024-08-20 11:49:14 by Eclipse SUMO GUI Version 1.15.0
<configuration xmlns:xsi="http://www.w3.org/2001/XMLSchema-instance" xsi:noNamespaceSchemaLocation="http://sumo.dlr.de/xsd/sumoConfiguration.xsd">

    <input>
        <net-file value="parking_on_off_road.net.xml"/>
        <route-files value="parking_on_off_road.rou.xml"/>
        <additional-files value="parking_on_off_road.add.xml"/>
    </input>

    <output>
        <tripinfo-output value="tripinfo-xml"/>
    </output>

    <traci_server>
        <remote-port value="33669"/>
    </traci_server>

</configuration>
-->

<tripinfos xmlns:xsi="http://www.w3.org/2001/XMLSchema-instance" xsi:noNamespaceSchemaLocation="http://sumo.dlr.de/xsd/tripinfo_file.xsd">
    <tripinfo id="carflow.1" depart="3.00" departLane="-E2_0" departPos="5.10" departSpeed="0.00" departDelay="1.00" arrival="108.00" arrivalLane="E1_0" arrivalPos="43.82" arrivalSpeed="8.80" duration="105.00" routeLength="338.41" waitingTime="2.00" waitingCount="2" stopTime="40.00" timeLoss="27.95" rerouteNo="3" devices="tripinfo_carflow.1" vType="car" speedFactor="0.94" vaporized=""/>
    <tripinfo id="carflow.0" depart="0.00" departLane="-E2_0" departPos="5.10" departSpeed="0.00" departDelay="0.00" arrival="137.00" arrivalLane="E1_0" arrivalPos="43.82" arrivalSpeed="9.67" duration="137.00" routeLength="592.71" waitingTime="3.00" waitingCount="2" stopTime="42.00" timeLoss="33.77" rerouteNo="2" devices="tripinfo_carflow.0" vType="car" speedFactor="1.06" vaporized=""/>
    <tripinfo id="carflow.10" depart="39.00" departLane="-E2_0" departPos="5.10" departSpeed="0.00" departDelay="19.00" arrival="141.00" arrivalLane="E1_0" arrivalPos="43.82" arrivalSpeed="7.81" duration="102.00" routeLength="338.41" waitingTime="1.00" waitingCount="1" stopTime="40.00" timeLoss="26.15" rerouteNo="4" devices="tripinfo_carflow.10" vType="car" speedFactor="1.09" vaporized=""/>
    <tripinfo id="carflow.4" depart="16.00" departLane="-E2_0" departPos="5.10" departSpeed="0.00" departDelay="8.00" arrival="153.00" arrivalLane="E1_0" arrivalPos="43.82" arrivalSpeed="9.32" duration="137.00" routeLength="405.71" waitingTime="30.00" waitingCount="2" stopTime="40.00" timeLoss="55.32" rerouteNo="2" devices="tripinfo_carflow.4" vType="car" speedFactor="1.03" vaporized=""/>
    <tripinfo id="carflow.11" depart="42.00" departLane="-E2_0" departPos="5.10" departSpeed="0.00" departDelay="20.00" arrival="180.00" arrivalLane="E1_0" arrivalPos="43.82" arrivalSpeed="9.01" duration="138.00" routeLength="592.71" waitingTime="2.00" waitingCount="2" stopTime="40.00" timeLoss="36.58" rerouteNo="5" devices="tripinfo_carflow.11" vType="car" speedFactor="1.03" vaporized=""/>
    <tripinfo id="carflow.19" depart="72.00" departLane="-E2_0" departPos="5.10" departSpeed="0.00" departDelay="34.00" arrival="206.00" arrivalLane="E1_0" arrivalPos="43.82" arrivalSpeed="9.72" duration="134.00" routeLength="449.48" waitingTime="16.00" waitingCount="1" stopTime="40.00" timeLoss="47.07" rerouteNo="8" devices="tripinfo_carflow.19" vType="car" speedFactor="1.16" vaporized=""/>
    <tripinfo id="carflow.16" depart="62.00" departLane="-E2_0" departPos="5.10" departSpeed="0.00" departDelay="30.00" arrival="213.00" arrivalLane="E1_0" arrivalPos="43.82" arrivalSpeed="8.46" duration="151.00" routeLength="592.71" waitingTime="3.00" waitingCount="2" stopTime="40.00" timeLoss="49.21" rerouteNo="2" devices="tripinfo_carflow.16" vType="car" speedFactor="0.88" vaporized=""/>
    <tripinfo id="carflow.30" depart="113.00" departLane="-E2_0" departPos="5.10" departSpeed="0.00" departDelay="53.00" arrival="215.00" arrivalLane="E1_0" arrivalPos="43.82" arrivalSpeed="9.91" duration="102.00" routeLength="592.71" waitingTime="3.00" waitingCount="2" stopTime="0.00" timeLoss="42.19" rerouteNo="5" devices="tripinfo_carflow.30" vType="car" speedFactor="1.18" vaporized=""/>
    <tripinfo id="carflow.27" depart="101.00" departLane="-E2_0" departPos="5.10" departSpeed="0.00" departDelay="47.00" arrival="220.00" arrivalLane="E1_0" arrivalPos="43.82" arrivalSpeed="9.06" duration="119.00" routeLength="474.62" waitingTime="32.00" waitingCount="4" stopTime="0.00" timeLoss="68.91" rerouteNo="5" devices="tripinfo_carflow.27" vType="car" speedFactor="0.95" vaporized=""/>
    <tripinfo id="carflow.33" depart="124.00" departLane="-E2_0" departPos="5.10" departSpeed="0.00" departDelay="58.00" arrival="224.00" arrivalLane="E1_0" arrivalPos="43.82" arrivalSpeed="8.27" duration="100.00" routeLength="338.41" waitingTime="1.00" waitingCount="1" stopTime="40.00" timeLoss="24.35" rerouteNo="4" devices="tripinfo_carflow.33" vType="car" speedFactor="1.17" vaporized=""/>
    <tripinfo id="carflow.13" depart="51.00" departLane="-E2_0" departPos="5.10" departSpeed="0.00" departDelay="25.00" arrival="229.00" arrivalLane="E1_0" arrivalPos="43.82" arrivalSpeed="8.09" duration="178.00" routeLength="354.31" waitingTime="109.00" waitingCount="4" stopTime="0.00" timeLoss="141.20" rerouteNo="3" devices="tripinfo_carflow.13" vType="car" speedFactor="1.12" vaporized=""/>
    <tripinfo id="carflow.34" depart="127.00" departLane="-E2_0" departPos="5.10" departSpeed="0.00" departDelay="59.00" arrival="240.00" arrivalLane="E1_0" arrivalPos="43.82" arrivalSpeed="9.73" duration="113.00" routeLength="439.15" waitingTime="1.00" waitingCount="1" stopTime="40.00" timeLoss="26.48" rerouteNo="3" devices="tripinfo_carflow.34" vType="car" speedFactor="0.99" vaporized=""/>
    <tripinfo id="carflow.29" depart="110.00" departLane="-E2_0" departPos="5.10" departSpeed="0.00" departDelay="52.00" arrival="250.00" arrivalLane="E1_0" arrivalPos="43.82" arrivalSpeed="9.70" duration="140.00" routeLength="592.71" waitingTime="2.00" waitingCount="1" stopTime="40.00" timeLoss="38.45" rerouteNo="2" devices="tripinfo_carflow.29" vType="car" speedFactor="0.93" vaporized=""/>
    <tripinfo id="carflow.2" depart="8.00" departLane="-E2_0" departPos="5.10" departSpeed="0.00" departDelay="4.00" arrival="256.00" arrivalLane="E1_0" arrivalPos="43.82" arrivalSpeed="7.64" duration="248.00" routeLength="354.31" waitingTime="113.00" waitingCount="10" stopTime="46.00" timeLoss="165.20" rerouteNo="3" devices="tripinfo_carflow.2" vType="car" speedFactor="1.01" vaporized=""/>
    <tripinfo id="carflow.3" depart="12.00" departLane="-E2_0" departPos="5.10" departSpeed="0.00" departDelay="6.00" arrival="260.00" arrivalLane="E1_0" arrivalPos="43.82" arrivalSpeed="7.55" duration="248.00" routeLength="885.03" waitingTime="77.00" waitingCount="2" stopTime="40.00" timeLoss="115.81" rerouteNo="10" devices="tripinfo_carflow.3" vType="car" speedFactor="1.08" vaporized=""/>
    <tripinfo id="carflow.7" depart="29.00" departLane="-E2_0" departPos="5.10" departSpeed="0.00" departDelay="15.00" arrival="265.00" arrivalLane="E1_0" arrivalPos="43.82" arrivalSpeed="9.58" duration="236.00" routeLength="504.26" waitingTime="89.00" waitingCount="9" stopTime="43.00" timeLoss="139.32" rerouteNo="2" devices="tripinfo_carflow.7" vType="car" speedFactor="0.89" vaporized=""/>
    <tripinfo id="carflow.6" depart="25.00" departLane="-E2_0" departPos="5.10" departSpeed="0.00" departDelay="13.00" arrival="269.00" arrivalLane="E1_0" arrivalPos="43.82" arrivalSpeed="9.56" duration="244.00" routeLength="453.66" waitingTime="90.00" waitingCount="11" stopTime="43.00" timeLoss="154.06" rerouteNo="3" devices="tripinfo_carflow.6" vType="car" speedFactor="1.05" vaporized=""/>
    <tripinfo id="carflow.15" depart="58.00" departLane="-E2_0" departPos="5.10" departSpeed="0.00" departDelay="28.00" arrival="273.00" arrivalLane="E1_0" arrivalPos="43.82" arrivalSpeed="9.12" duration="215.00" routeLength="597.71" waitingTime="55.00" waitingCount="5" stopTime="40.00" timeLoss="111.56" rerouteNo="3" devices="tripinfo_carflow.15" vType="car" speedFactor="0.93" vaporized=""/>
    <tripinfo id="carflow.36" depart="134.00" departLane="-E2_0" departPos="5.10" departSpeed="0.00" departDelay="62.00" arrival="279.00" arrivalLane="E1_0" arrivalPos="43.82" arrivalSpeed="7.87" duration="145.00" routeLength="405.71" waitingTime="17.00" waitingCount="3" stopTime="44.00" timeLoss="58.94" rerouteNo="2" devices="tripinfo_carflow.36" vType="car" speedFactor="0.97" vaporized=""/>
    <tripinfo id="carflow.9" depart="35.00" departLane="-E2_0" departPos="5.10" departSpeed="0.00" departDelay="17.00" arrival="282.00" arrivalLane="E1_0" arrivalPos="43.82" arrivalSpeed="9.83" duration="247.00" routeLength="453.66" waitingTime="101.00" waitingCount="5" stopTime="40.00" timeLoss="158.69" rerouteNo="3" devices="tripinfo_carflow.9" vType="car" speedFactor="0.86" vaporized=""/>
    <tripinfo id="carflow.40" depart="150.00" departLane="-E2_0" departPos="5.10" departSpeed="0.00" departDelay="70.00" arrival="285.00" arrivalLane="E1_0" arrivalPos="43.82" arrivalSpeed="9.85" duration="135.00" routeLength="405.71" waitingTime="14.00" waitingCount="3" stopTime="40.00" timeLoss="53.55" rerouteNo="2" devices="tripinfo_carflow.40" vType="car" speedFactor="1.03" vaporized=""/>
    <tripinfo id="carflow.43" depart="160.00" departLane="-E2_0" departPos="5.10" departSpeed="0.00" departDelay="74.00" arrival="289.00" arrivalLane="E1_0" arrivalPos="43.82" arrivalSpeed="9.27" duration="129.00" routeLength="405.71" waitingTime="5.00" waitingCount="2" stopTime="40.00" timeLoss="47.23" rerouteNo="4" devices="tripinfo_carflow.43" vType="car" speedFactor="1.04" vaporized=""/>
    <tripinfo id="carflow.46" depart="171.00" departLane="-E2_0" departPos="5.10" departSpeed="0.00" departDelay="79.00" arrival="301.00" arrivalLane="E1_0" arrivalPos="43.82" arrivalSpeed="8.73" duration="130.00" routeLength="439.15" waitingTime="9.00" waitingCount="3" stopTime="40.00" timeLoss="43.13" rerouteNo="3" devices="tripinfo_carflow.46" vType="car" speedFactor="1.00" vaporized=""/>
    <tripinfo id="carflow.35" depart="130.00" departLane="-E2_0" departPos="5.10" departSpeed="0.00" departDelay="60.00" arrival="303.00" arrivalLane="E1_0" arrivalPos="43.82" arrivalSpeed="9.67" duration="173.00" routeLength="807.68" waitingTime="2.00" waitingCount="1" stopTime="40.00" timeLoss="49.24" rerouteNo="7" devices="tripinfo_carflow.35" vType="car" speedFactor="1.02" vaporized=""/>
    <tripinfo id="carflow.20" depart="76.00" departLane="-E2_0" departPos="5.10" departSpeed="0.00" departDelay="36.00" arrival="307.00" arrivalLane="E1_0" arrivalPos="43.82" arrivalSpeed="8.48" duration="231.00" routeLength="785.31" waitingTime="50.00" waitingCount="9" stopTime="40.00" timeLoss="108.30" rerouteNo="9" devices="tripinfo_carflow.20" vType="car" speedFactor="1.02" vaporized=""/>
    <tripinfo id="carflow.37" depart="138.00" departLane="-E2_0" departPos="5.10" departSpeed="0.00" departDelay="64.00" arrival="312.00" arrivalLane="E1_0" arrivalPos="43.82" arrivalSpeed="9.24" duration="174.00" routeLength="603.98" waitingTime="20.00" waitingCount="3" stopTime="40.00" timeLoss="72.38" rerouteNo="4" devices="tripinfo_carflow.37" vType="car" speedFactor="1.18" vaporized=""/>
    <tripinfo id="carflow.31" depart="117.00" departLane="-E2_0" departPos="5.10" departSpeed="0.00" departDelay="55.00" arrival="315.00" arrivalLane="E1_0" arrivalPos="43.82" arrivalSpeed="8.33" duration="198.00" routeLength="677.39" waitingTime="21.00" waitingCount="4" stopTime="40.00" timeLoss="87.14" rerouteNo="3" devices="tripinfo_carflow.31" vType="car" speedFactor="1.15" vaporized=""/>
    <tripinfo id="carflow.28" depart="106.00" departLane="-E2_0" departPos="5.10" departSpeed="0.00" departDelay="50.00" arrival="319.00" arrivalLane="E1_0" arrivalPos="43.82" arrivalSpeed="9.53" duration="213.00" routeLength="732.99" waitingTime="13.00" waitingCount="4" stopTime="40.00" timeLoss="97.42" rerouteNo="4" devices="tripinfo_carflow.28" vType="car" speedFactor="1.13" vaporized=""/>
    <tripinfo id="carflow.18" depart="69.00" departLane="-E2_0" departPos="5.10" departSpeed="0.00" departDelay="33.00" arrival="327.00" arrivalLane="E1_0" arrivalPos="43.82" arrivalSpeed="9.36" duration="258.00" routeLength="942.14" waitingTime="54.00" waitingCount="4" stopTime="40.00" timeLoss="119.26" rerouteNo="10" devices="tripinfo_carflow.18" vType="car" speedFactor="0.94" vaporized=""/>
    <tripinfo id="carflow.45" depart="168.00" departLane="-E2_0" departPos="5.10" departSpeed="0.00" departDelay="78.00" arrival="331.00" arrivalLane="E1_0" arrivalPos="43.82" arrivalSpeed="8.85" duration="163.00" routeLength="405.71" waitingTime="33.00" waitingCount="5" stopTime="63.00" timeLoss="57.85" rerouteNo="3" devices="tripinfo_carflow.45" vType="car" speedFactor="1.09" vaporized=""/>
    <tripinfo id="carflow.17" depart="66.00" departLane="-E2_0" departPos="5.10" departSpeed="0.00" departDelay="32.00" arrival="334.00" arrivalLane="E1_0" arrivalPos="43.82" arrivalSpeed="7.86" duration="268.00" routeLength="354.31" waitingTime="131.00" waitingCount="7" stopTime="40.00" timeLoss="189.94" rerouteNo="3" devices="tripinfo_carflow.17" vType="car" speedFactor="0.94" vaporized=""/>
    <tripinfo id="carflow.23" depart="87.00" departLane="-E2_0" departPos="5.10" departSpeed="0.00" departDelay="41.00" arrival="338.00" arrivalLane="E1_0" arrivalPos="43.82" arrivalSpeed="8.48" duration="251.00" routeLength="491.71" waitingTime="97.00" waitingCount="9" stopTime="40.00" timeLoss="158.54" rerouteNo="2" devices="tripinfo_carflow.23" vType="car" speedFactor="0.89" vaporized=""/>
    <tripinfo id="carflow.24" depart="90.00" departLane="-E2_0" departPos="5.10" departSpeed="0.00" departDelay="42.00" arrival="341.00" arrivalLane="E1_0" arrivalPos="43.82" arrivalSpeed="8.47" duration="251.00" routeLength="487.09" waitingTime="83.00" waitingCount="6" stopTime="40.00" timeLoss="157.42" rerouteNo="4" devices="tripinfo_carflow.24" vType="car" speedFactor="0.83" vaporized=""/>
    <tripinfo id="carflow.14" depart="54.00" departLane="-E2_0" departPos="5.10" departSpeed="0.00" departDelay="26.00" arrival="344.00" arrivalLane="E1_0" arrivalPos="43.82" arrivalSpeed="9.58" duration="290.00" routeLength="687.72" waitingTime="105.00" waitingCount="5" stopTime="40.00" timeLoss="177.50" rerouteNo="5" devices="tripinfo_carflow.14" vType="car" speedFactor="0.99" vaporized=""/>
    <tripinfo id="carflow.21" depart="80.00" departLane="-E2_0" departPos="5.10" departSpeed="0.00" departDelay="38.00" arrival="347.00" arrivalLane="E1_0" arrivalPos="43.82" arrivalSpeed="9.21" duration="267.00" routeLength="739.12" waitingTime="86.00" waitingCount="5" stopTime="40.00" timeLoss="150.02" rerouteNo="4" devices="tripinfo_carflow.21" vType="car" speedFactor="1.01" vaporized=""/>
    <tripinfo id="carflow.44" depart="165.00" departLane="-E2_0" departPos="5.10" departSpeed="0.00" departDelay="77.00" arrival="352.00" arrivalLane="E1_0" arrivalPos="43.82" arrivalSpeed="9.42" duration="187.00" routeLength="805.69" waitingTime="6.00" waitingCount="2" stopTime="40.00" timeLoss="62.42" rerouteNo="7" devices="tripinfo_carflow.44" vType="car" speedFactor="1.04" vaporized=""/>
    <tripinfo id="carflow.25" depart="94.00" departLane="-E2_0" departPos="5.10" departSpeed="0.00" departDelay="44.00" arrival="356.00" arrivalLane="E1_0" arrivalPos="43.82" arrivalSpeed="9.54" duration="262.00" routeLength="453.66" waitingTime="104.00" waitingCount="6" stopTime="40.00" timeLoss="173.86" rerouteNo="3" devices="tripinfo_carflow.25" vType="car" speedFactor="0.87" vaporized=""/>
    <tripinfo id="carflow.39" depart="147.00" departLane="-E2_0" departPos="5.10" departSpeed="0.00" departDelay="69.00" arrival="361.00" arrivalLane="E1_0" arrivalPos="43.82" arrivalSpeed="7.74" duration="214.00" routeLength="600.95" waitingTime="38.00" waitingCount="2" stopTime="40.00" timeLoss="110.26" rerouteNo="3" devices="tripinfo_carflow.39" vType="car" speedFactor="0.90" vaporized=""/>
    <tripinfo id="carflow.49" depart="182.00" departLane="-E2_0" departPos="5.10" departSpeed="0.00" departDelay="84.00" arrival="365.00" arrivalLane="E1_0" arrivalPos="43.82" arrivalSpeed="7.70" duration="183.00" routeLength="491.71" waitingTime="34.00" waitingCount="3" stopTime="40.00" timeLoss="90.73" rerouteNo="5" devices="tripinfo_carflow.49" vType="car" speedFactor="0.85" vaporized=""/>
    <tripinfo id="carflow.38" depart="143.00" departLane="-E2_0" departPos="5.10" departSpeed="0.00" departDelay="67.00" arrival="372.00" arrivalLane="E1_0" arrivalPos="43.82" arrivalSpeed="8.12" duration="229.00" routeLength="569.28" waitingTime="81.00" waitingCount="1" stopTime="121.00" timeLoss="49.12" rerouteNo="5" devices="tripinfo_carflow.38" vType="car" speedFactor="1.10" vaporized=""/>
    <tripinfo id="carflow.22" depart="83.00" departLane="-E2_0" departPos="5.10" departSpeed="0.00" departDelay="39.00" arrival="376.00" arrivalLane="E1_0" arrivalPos="43.82" arrivalSpeed="7.62" duration="293.00" routeLength="832.14" waitingTime="88.00" waitingCount="9" stopTime="40.00" timeLoss="165.67" rerouteNo="8" devices="tripinfo_carflow.22" vType="car" speedFactor="0.97" vaporized=""/>
    <tripinfo id="carflow.26" depart="97.00" departLane="-E2_0" departPos="5.10" departSpeed="0.00" departDelay="45.00" arrival="382.00" arrivalLane="E1_0" arrivalPos="43.82" arrivalSpeed="9.10" duration="285.00" routeLength="578.22" waitingTime="134.00" waitingCount="3" stopTime="40.00" timeLoss="181.93" rerouteNo="6" devices="tripinfo_carflow.26" vType="car" speedFactor="0.92" vaporized=""/>
    <tripinfo id="carflow.42" depart="156.00" departLane="-E2_0" departPos="5.10" departSpeed="0.00" departDelay="72.00" arrival="385.00" arrivalLane="E1_0" arrivalPos="43.82" arrivalSpeed="9.66" duration="229.00" routeLength="654.12" waitingTime="52.00" waitingCount="6" stopTime="40.00" timeLoss="119.74" rerouteNo="6" devices="tripinfo_carflow.42" vType="car" speedFactor="1.09" vaporized=""/>
    <tripinfo id="carflow.8" depart="32.00" departLane="-E2_0" departPos="5.10" departSpeed="0.00" departDelay="16.00" arrival="389.00" arrivalLane="E1_0" arrivalPos="43.82" arrivalSpeed="7.54" duration="357.00" routeLength="807.71" waitingTime="140.00" waitingCount="12" stopTime="40.00" timeLoss="232.46" rerouteNo="6" devices="tripinfo_carflow.8" vType="car" speedFactor="0.94" vaporized=""/>
    <tripinfo id="carflow.12" depart="46.00" departLane="-E2_0" departPos="5.10" departSpeed="0.00" departDelay="22.00" arrival="397.00" arrivalLane="E1_0" arrivalPos="43.82" arrivalSpeed="8.88" duration="351.00" routeLength="354.31" waitingTime="241.00" waitingCount="1" stopTime="280.00" timeLoss="34.23" rerouteNo="5" devices="tripinfo_carflow.12" vType="car" speedFactor="1.05" vaporized=""/>
    <tripinfo id="carflow.5" depart="20.00" departLane="-E2_0" departPos="5.10" departSpeed="0.00" departDelay="10.00" arrival="401.00" arrivalLane="E1_0" arrivalPos="43.82" arrivalSpeed="8.46" duration="381.00" routeLength="405.71" waitingTime="268.00" waitingCount="1" stopTime="305.00" timeLoss="34.00" rerouteNo="2" devices="tripinfo_carflow.5" vType="car" speedFactor="0.83" vaporized=""/>
    <tripinfo id="carflow.47" depart="175.00" departLane="-E2_0" departPos="5.10" departSpeed="0.00" departDelay="81.00" arrival="427.00" arrivalLane="E1_0" arrivalPos="43.82" arrivalSpeed="7.59" duration="252.00" routeLength="575.31" waitingTime="78.00" waitingCount="8" stopTime="40.00" timeLoss="148.77" rerouteNo="5" devices="tripinfo_carflow.47" vType="car" speedFactor="0.90" vaporized=""/>
    <tripinfo id="carflow.32" depart="121.00" departLane="-E2_0" departPos="5.10" departSpeed="0.00" departDelay="57.00" arrival="443.00" arrivalLane="E1_0" arrivalPos="43.82" arrivalSpeed="7.97" duration="322.00" routeLength="1604.99" waitingTime="23.00" waitingCount="3" stopTime="40.00" timeLoss="114.60" rerouteNo="20" devices="tripinfo_carflow.32" vType="car" speedFactor="1.01" vaporized=""/>
    <tripinfo id="carflow.41" depart="153.00" departLane="-E2_0" departPos="5.10" departSpeed="0.00" departDelay="71.00" arrival="465.00" arrivalLane="E1_0" arrivalPos="43.82" arrivalSpeed="9.98" duration="312.00" routeLength="896.79" waitingTime="79.00" waitingCount="7" stopTime="40.00" timeLoss="177.09" rerouteNo="9" devices="tripinfo_carflow.41" vType="car" speedFactor="0.96" vaporized=""/>
    <tripinfo id="carflow.48" depart="178.00" departLane="-E2_0" departPos="5.10" departSpeed="0.00" departDelay="82.00" arrival="496.00" arrivalLane="E1_0" arrivalPos="43.82" arrivalSpeed="9.35" duration="318.00" routeLength="929.36" waitingTime="87.00" waitingCount="11" stopTime="40.00" timeLoss="176.75" rerouteNo="10" devices="tripinfo_carflow.48" vType="car" speedFactor="0.88" vaporized=""/>
</tripinfos>
