<?xml version="1.0" encoding="UTF-8"?>

<!-- generated on 2024-11-09 19:17:09 by Eclipse SUMO GUI Version v1_20_0+2013-dea7f8276dd
<sumoConfiguration xmlns:xsi="http://www.w3.org/2001/XMLSchema-instance" xsi:noNamespaceSchemaLocation="http://sumo.dlr.de/xsd/sumoConfiguration.xsd">

    <input>
        <net-file value="parking_on_off_road.net.xml"/>
        <additional-files value="parking_on_off_road.add.xml"/>
    </input>

    <output>
        <tripinfo-output value="tripinfo_0.5_0.xml"/>
    </output>

    <traci_server>
        <remote-port value="50439"/>
    </traci_server>

    <gui_only>
        <quit-on-end value="true"/>
        <start value="true"/>
    </gui_only>

</sumoConfiguration>
-->

<tripinfos xmlns:xsi="http://www.w3.org/2001/XMLSchema-instance" xsi:noNamespaceSchemaLocation="http://sumo.dlr.de/xsd/tripinfo_file.xsd">
    <tripinfo id="vehicle_10" depart="0.00" departLane="E67_0" departPos="56.96" departSpeed="0.10" departDelay="0.00" arrival="247.00" arrivalLane="E86_0" arrivalPos="183.31" arrivalSpeed="13.58" duration="247.00" routeLength="852.77" waitingTime="0.00" waitingCount="0" stopTime="160.00" timeLoss="25.44" rerouteNo="2" devices="tripinfo_vehicle_10" vType="DEFAULT_VEHTYPE" speedFactor="1.05" vaporized=""/>
    <tripinfo id="vehicle_6" depart="0.00" departLane="E9_0" departPos="39.38" departSpeed="0.10" departDelay="0.00" arrival="250.00" arrivalLane="E86_0" arrivalPos="183.31" arrivalSpeed="14.01" duration="250.00" routeLength="809.83" waitingTime="2.00" waitingCount="1" stopTime="158.00" timeLoss="30.58" rerouteNo="2" devices="tripinfo_vehicle_6" vType="DEFAULT_VEHTYPE" speedFactor="1.03" vaporized=""/>
    <tripinfo id="vehicle_16" depart="0.00" departLane="E56_0" departPos="58.39" departSpeed="0.10" departDelay="0.00" arrival="261.00" arrivalLane="E86_0" arrivalPos="183.31" arrivalSpeed="11.15" duration="261.00" routeLength="1092.41" waitingTime="0.00" waitingCount="0" stopTime="117.00" timeLoss="48.50" rerouteNo="3" devices="tripinfo_vehicle_16" vType="DEFAULT_VEHTYPE" speedFactor="0.86" vaporized=""/>
    <tripinfo id="vehicle_0" depart="0.00" departLane="-E29_0" departPos="39.09" departSpeed="0.10" departDelay="0.00" arrival="263.00" arrivalLane="E86_0" arrivalPos="183.31" arrivalSpeed="13.75" duration="263.00" routeLength="1073.66" waitingTime="1.00" waitingCount="1" stopTime="145.00" timeLoss="37.91" rerouteNo="10" devices="tripinfo_vehicle_0" vType="DEFAULT_VEHTYPE" speedFactor="1.06" vaporized=""/>
    <tripinfo id="vehicle_4" depart="10.00" departLane="-E84_0" departPos="0.00" departSpeed="0.10" departDelay="0.00" arrival="292.00" arrivalLane="E86_0" arrivalPos="183.31" arrivalSpeed="5.89" duration="282.00" routeLength="1025.07" waitingTime="0.00" waitingCount="0" stopTime="88.00" timeLoss="22.97" rerouteNo="2" devices="tripinfo_vehicle_4" vType="DEFAULT_VEHTYPE@vehicle_4" speedFactor="1.03" vaporized=""/>
    <tripinfo id="vehicle_14" depart="0.00" departLane="E72_0" departPos="32.29" departSpeed="0.10" departDelay="0.00" arrival="294.00" arrivalLane="E86_0" arrivalPos="183.31" arrivalSpeed="9.88" duration="294.00" routeLength="1118.21" waitingTime="1.00" waitingCount="1" stopTime="130.00" timeLoss="66.83" rerouteNo="2" devices="tripinfo_vehicle_14" vType="DEFAULT_VEHTYPE" speedFactor="0.89" vaporized=""/>
    <tripinfo id="vehicle_2" depart="0.00" departLane="E12_0" departPos="27.51" departSpeed="0.10" departDelay="0.00" arrival="300.00" arrivalLane="E86_0" arrivalPos="183.31" arrivalSpeed="12.57" duration="300.00" routeLength="1684.61" waitingTime="1.00" waitingCount="1" stopTime="122.00" timeLoss="42.04" rerouteNo="2" devices="tripinfo_vehicle_2" vType="DEFAULT_VEHTYPE" speedFactor="0.94" vaporized=""/>
    <tripinfo id="vehicle_3" depart="0.00" departLane="E37_0" departPos="26.37" departSpeed="0.10" departDelay="0.00" arrival="302.00" arrivalLane="E86_0" arrivalPos="183.31" arrivalSpeed="13.17" duration="302.00" routeLength="1604.66" waitingTime="0.00" waitingCount="0" stopTime="135.00" timeLoss="44.21" rerouteNo="2" devices="tripinfo_vehicle_3" vType="DEFAULT_VEHTYPE" speedFactor="1.01" vaporized=""/>
    <tripinfo id="vehicle_8" depart="0.00" departLane="-E76_0" departPos="30.71" departSpeed="0.10" departDelay="0.00" arrival="309.00" arrivalLane="E86_0" arrivalPos="183.31" arrivalSpeed="11.52" duration="309.00" routeLength="1511.74" waitingTime="0.00" waitingCount="0" stopTime="130.00" timeLoss="40.33" rerouteNo="2" devices="tripinfo_vehicle_8" vType="DEFAULT_VEHTYPE" speedFactor="0.83" vaporized=""/>
    <tripinfo id="vehicle_18" depart="80.00" departLane="E12_0" departPos="0.00" departSpeed="0.10" departDelay="0.00" arrival="403.00" arrivalLane="E86_0" arrivalPos="183.31" arrivalSpeed="5.58" duration="323.00" routeLength="906.89" waitingTime="0.00" waitingCount="0" stopTime="145.00" timeLoss="26.37" rerouteNo="2" devices="tripinfo_vehicle_18" vType="DEFAULT_VEHTYPE@vehicle_18" speedFactor="0.94" vaporized=""/>
    <tripinfo id="vehicle_5" depart="0.00" departLane="E63_0" departPos="76.12" departSpeed="0.10" departDelay="0.00" arrival="405.00" arrivalLane="E86_0" arrivalPos="183.31" arrivalSpeed="8.71" duration="405.00" routeLength="1920.04" waitingTime="1.00" waitingCount="1" stopTime="199.00" timeLoss="71.17" rerouteNo="2" devices="tripinfo_vehicle_5" vType="DEFAULT_VEHTYPE" speedFactor="1.08" vaporized=""/>
    <tripinfo id="vehicle_15" depart="0.00" departLane="E29_0" departPos="38.52" departSpeed="0.10" departDelay="0.00" arrival="407.00" arrivalLane="E86_0" arrivalPos="183.31" arrivalSpeed="11.54" duration="407.00" routeLength="1422.08" waitingTime="6.00" waitingCount="2" stopTime="196.00" timeLoss="98.04" rerouteNo="2" devices="tripinfo_vehicle_15" vType="DEFAULT_VEHTYPE" speedFactor="0.94" vaporized=""/>
    <tripinfo id="vehicle_17" depart="70.00" departLane="E60_0" departPos="0.00" departSpeed="0.10" departDelay="0.00" arrival="427.00" arrivalLane="E86_0" arrivalPos="183.31" arrivalSpeed="5.91" duration="357.00" routeLength="1110.35" waitingTime="0.00" waitingCount="0" stopTime="144.00" timeLoss="27.43" rerouteNo="3" devices="tripinfo_vehicle_17" vType="DEFAULT_VEHTYPE@vehicle_17" speedFactor="0.94" vaporized=""/>
    <tripinfo id="vehicle_7" depart="20.00" departLane="-E53_0" departPos="0.00" departSpeed="0.10" departDelay="0.00" arrival="442.00" arrivalLane="E86_0" arrivalPos="183.31" arrivalSpeed="5.22" duration="422.00" routeLength="1469.64" waitingTime="0.00" waitingCount="0" stopTime="143.00" timeLoss="33.79" rerouteNo="2" devices="tripinfo_vehicle_7" vType="DEFAULT_VEHTYPE@vehicle_7" speedFactor="1.05" vaporized=""/>
    <tripinfo id="vehicle_13" depart="60.00" departLane="-E53_0" departPos="0.00" departSpeed="0.10" departDelay="0.00" arrival="467.00" arrivalLane="E86_0" arrivalPos="183.31" arrivalSpeed="5.05" duration="407.00" routeLength="1303.06" waitingTime="0.00" waitingCount="0" stopTime="160.00" timeLoss="29.72" rerouteNo="4" devices="tripinfo_vehicle_13" vType="DEFAULT_VEHTYPE@vehicle_13" speedFactor="0.88" vaporized=""/>
    <tripinfo id="vehicle_12" depart="50.00" departLane="E56_0" departPos="0.00" departSpeed="0.10" departDelay="0.00" arrival="472.00" arrivalLane="E86_0" arrivalPos="183.31" arrivalSpeed="5.35" duration="422.00" routeLength="1621.03" waitingTime="0.00" waitingCount="0" stopTime="117.00" timeLoss="34.40" rerouteNo="3" devices="tripinfo_vehicle_12" vType="DEFAULT_VEHTYPE@vehicle_12" speedFactor="0.93" vaporized=""/>
    <tripinfo id="vehicle_1" depart="0.00" departLane="E59_0" departPos="0.00" departSpeed="0.10" departDelay="0.00" arrival="486.00" arrivalLane="E86_0" arrivalPos="183.31" arrivalSpeed="5.52" duration="486.00" routeLength="1952.20" waitingTime="1.00" waitingCount="1" stopTime="115.00" timeLoss="45.65" rerouteNo="3" devices="tripinfo_vehicle_1" vType="DEFAULT_VEHTYPE@vehicle_1" speedFactor="1.09" vaporized=""/>
    <tripinfo id="vehicle_21" depart="110.00" departLane="-E55_0" departPos="0.00" departSpeed="0.10" departDelay="0.00" arrival="504.00" arrivalLane="E86_0" arrivalPos="183.31" arrivalSpeed="5.81" duration="394.00" routeLength="1441.96" waitingTime="3.00" waitingCount="1" stopTime="112.00" timeLoss="41.06" rerouteNo="4" devices="tripinfo_vehicle_21" vType="DEFAULT_VEHTYPE@vehicle_21" speedFactor="1.01" vaporized=""/>
    <tripinfo id="vehicle_25" depart="150.00" departLane="-E29_0" departPos="0.00" departSpeed="0.10" departDelay="0.00" arrival="518.00" arrivalLane="E86_0" arrivalPos="183.31" arrivalSpeed="5.10" duration="368.00" routeLength="1359.53" waitingTime="0.00" waitingCount="0" stopTime="104.00" timeLoss="36.45" rerouteNo="2" devices="tripinfo_vehicle_25" vType="DEFAULT_VEHTYPE@vehicle_25" speedFactor="0.87" vaporized=""/>
    <tripinfo id="vehicle_29" depart="190.00" departLane="-E66_0" departPos="0.00" departSpeed="0.10" departDelay="0.00" arrival="521.00" arrivalLane="E86_0" arrivalPos="183.31" arrivalSpeed="5.97" duration="331.00" routeLength="1304.23" waitingTime="1.00" waitingCount="1" stopTime="81.00" timeLoss="32.23" rerouteNo="2" devices="tripinfo_vehicle_29" vType="DEFAULT_VEHTYPE@vehicle_29" speedFactor="0.93" vaporized=""/>
    <tripinfo id="vehicle_20" depart="100.00" departLane="E44_0" departPos="0.00" departSpeed="0.10" departDelay="0.00" arrival="525.00" arrivalLane="E86_0" arrivalPos="183.31" arrivalSpeed="5.41" duration="425.00" routeLength="1387.99" waitingTime="9.00" waitingCount="1" stopTime="146.00" timeLoss="47.25" rerouteNo="6" devices="tripinfo_vehicle_20" vType="DEFAULT_VEHTYPE@vehicle_20" speedFactor="1.02" vaporized=""/>
    <tripinfo id="vehicle_34" depart="240.00" departLane="E47_0" departPos="0.00" departSpeed="0.10" departDelay="0.00" arrival="533.00" arrivalLane="E86_0" arrivalPos="183.31" arrivalSpeed="4.82" duration="293.00" routeLength="911.89" waitingTime="1.00" waitingCount="1" stopTime="114.00" timeLoss="25.98" rerouteNo="2" devices="tripinfo_vehicle_34" vType="DEFAULT_VEHTYPE@vehicle_34" speedFactor="0.99" vaporized=""/>
    <tripinfo id="vehicle_22" depart="120.00" departLane="-E67_0" departPos="0.00" departSpeed="0.10" departDelay="0.00" arrival="557.00" arrivalLane="E86_0" arrivalPos="183.31" arrivalSpeed="5.44" duration="437.00" routeLength="1501.54" waitingTime="0.00" waitingCount="0" stopTime="152.00" timeLoss="33.84" rerouteNo="6" devices="tripinfo_vehicle_22" vType="DEFAULT_VEHTYPE@vehicle_22" speedFactor="0.97" vaporized=""/>
    <tripinfo id="vehicle_30" depart="200.00" departLane="-E32_0" departPos="0.00" departSpeed="0.10" departDelay="0.00" arrival="566.00" arrivalLane="E86_0" arrivalPos="183.31" arrivalSpeed="5.41" duration="366.00" routeLength="1268.61" waitingTime="0.00" waitingCount="0" stopTime="121.00" timeLoss="32.68" rerouteNo="8" devices="tripinfo_vehicle_30" vType="DEFAULT_VEHTYPE@vehicle_30" speedFactor="1.18" vaporized=""/>
    <tripinfo id="vehicle_31" depart="210.00" departLane="-E53_0" departPos="0.00" departSpeed="0.10" departDelay="0.00" arrival="597.00" arrivalLane="E86_0" arrivalPos="183.31" arrivalSpeed="5.75" duration="387.00" routeLength="1469.64" waitingTime="1.00" waitingCount="1" stopTime="108.00" timeLoss="33.93" rerouteNo="2" devices="tripinfo_vehicle_31" vType="DEFAULT_VEHTYPE@vehicle_31" speedFactor="1.15" vaporized=""/>
    <tripinfo id="vehicle_26" depart="160.00" departLane="-E37_0" departPos="0.00" departSpeed="0.10" departDelay="0.00" arrival="606.00" arrivalLane="E86_0" arrivalPos="183.31" arrivalSpeed="5.57" duration="446.00" routeLength="1889.91" waitingTime="1.00" waitingCount="1" stopTime="85.00" timeLoss="45.04" rerouteNo="3" devices="tripinfo_vehicle_26" vType="DEFAULT_VEHTYPE@vehicle_26" speedFactor="0.92" vaporized=""/>
    <tripinfo id="vehicle_23" depart="130.00" departLane="E70_0" departPos="0.00" departSpeed="0.10" departDelay="0.00" arrival="618.00" arrivalLane="E86_0" arrivalPos="183.31" arrivalSpeed="5.07" duration="488.00" routeLength="1856.75" waitingTime="0.00" waitingCount="0" stopTime="135.00" timeLoss="41.85" rerouteNo="6" devices="tripinfo_vehicle_23" vType="DEFAULT_VEHTYPE@vehicle_23" speedFactor="0.89" vaporized=""/>
    <tripinfo id="vehicle_36" depart="260.00" departLane="-E65_0" departPos="0.00" departSpeed="0.10" departDelay="0.00" arrival="629.00" arrivalLane="E86_0" arrivalPos="183.31" arrivalSpeed="5.77" duration="369.00" routeLength="1514.81" waitingTime="0.00" waitingCount="0" stopTime="80.00" timeLoss="36.04" rerouteNo="6" devices="tripinfo_vehicle_36" vType="DEFAULT_VEHTYPE@vehicle_36" speedFactor="0.97" vaporized=""/>
    <tripinfo id="vehicle_27" depart="170.00" departLane="-E56_0" departPos="0.00" departSpeed="0.10" departDelay="0.00" arrival="631.00" arrivalLane="E86_0" arrivalPos="183.31" arrivalSpeed="5.72" duration="461.00" routeLength="1644.85" waitingTime="2.00" waitingCount="1" stopTime="144.00" timeLoss="42.46" rerouteNo="7" devices="tripinfo_vehicle_27" vType="DEFAULT_VEHTYPE@vehicle_27" speedFactor="0.95" vaporized=""/>
    <tripinfo id="vehicle_38" depart="283.00" departLane="E54_0" departPos="0.00" departSpeed="0.10" departDelay="3.00" arrival="634.00" arrivalLane="E86_0" arrivalPos="183.31" arrivalSpeed="5.72" duration="351.00" routeLength="1134.61" waitingTime="0.00" waitingCount="0" stopTime="133.00" timeLoss="28.79" rerouteNo="2" devices="tripinfo_vehicle_38" vType="DEFAULT_VEHTYPE@vehicle_38" speedFactor="1.10" vaporized=""/>
    <tripinfo id="vehicle_19" depart="90.00" departLane="-E55_0" departPos="0.00" departSpeed="0.10" departDelay="0.00" arrival="652.00" arrivalLane="E86_0" arrivalPos="183.31" arrivalSpeed="4.83" duration="562.00" routeLength="2075.79" waitingTime="0.00" waitingCount="0" stopTime="170.00" timeLoss="46.05" rerouteNo="4" devices="tripinfo_vehicle_19" vType="DEFAULT_VEHTYPE@vehicle_19" speedFactor="1.16" vaporized=""/>
    <tripinfo id="vehicle_9" depart="30.00" departLane="-E71_0" departPos="0.00" departSpeed="0.10" departDelay="0.00" arrival="655.00" arrivalLane="E86_0" arrivalPos="183.31" arrivalSpeed="5.31" duration="625.00" routeLength="2356.97" waitingTime="0.00" waitingCount="0" stopTime="177.00" timeLoss="55.08" rerouteNo="8" devices="tripinfo_vehicle_9" vType="DEFAULT_VEHTYPE@vehicle_9" speedFactor="1.12" vaporized=""/>
    <tripinfo id="vehicle_35" depart="250.00" departLane="E36_0" departPos="0.00" departSpeed="0.10" departDelay="0.00" arrival="660.00" arrivalLane="E86_0" arrivalPos="183.31" arrivalSpeed="5.58" duration="410.00" routeLength="1260.14" waitingTime="4.00" waitingCount="1" stopTime="165.00" timeLoss="34.25" rerouteNo="2" devices="tripinfo_vehicle_35" vType="DEFAULT_VEHTYPE@vehicle_35" speedFactor="1.02" vaporized=""/>
    <tripinfo id="vehicle_42" depart="320.00" departLane="-E74_0" departPos="0.00" departSpeed="0.10" departDelay="0.00" arrival="678.00" arrivalLane="E86_0" arrivalPos="183.31" arrivalSpeed="5.49" duration="358.00" routeLength="962.50" waitingTime="1.00" waitingCount="1" stopTime="176.00" timeLoss="21.44" rerouteNo="2" devices="tripinfo_vehicle_42" vType="DEFAULT_VEHTYPE@vehicle_42" speedFactor="1.09" vaporized=""/>
    <tripinfo id="vehicle_24" depart="140.00" departLane="E52_0" departPos="0.00" departSpeed="0.10" departDelay="0.00" arrival="685.00" arrivalLane="E86_0" arrivalPos="183.31" arrivalSpeed="5.28" duration="545.00" routeLength="2427.16" waitingTime="0.00" waitingCount="0" stopTime="85.00" timeLoss="53.40" rerouteNo="9" devices="tripinfo_vehicle_24" vType="DEFAULT_VEHTYPE@vehicle_24" speedFactor="0.83" vaporized=""/>
    <tripinfo id="vehicle_11" depart="40.00" departLane="-E9_0" departPos="0.00" departSpeed="0.10" departDelay="0.00" arrival="688.00" arrivalLane="E86_0" arrivalPos="183.31" arrivalSpeed="5.64" duration="648.00" routeLength="2462.62" waitingTime="10.00" waitingCount="2" stopTime="169.00" timeLoss="67.71" rerouteNo="6" devices="tripinfo_vehicle_11" vType="DEFAULT_VEHTYPE@vehicle_11" speedFactor="0.99" vaporized=""/>
    <tripinfo id="vehicle_46" depart="360.00" departLane="-E68_0" departPos="0.00" departSpeed="0.10" departDelay="0.00" arrival="727.00" arrivalLane="E86_0" arrivalPos="183.31" arrivalSpeed="5.34" duration="367.00" routeLength="1331.56" waitingTime="0.00" waitingCount="0" stopTime="110.00" timeLoss="33.88" rerouteNo="2" devices="tripinfo_vehicle_46" vType="DEFAULT_VEHTYPE@vehicle_46" speedFactor="1.00" vaporized=""/>
    <tripinfo id="vehicle_37" depart="270.00" departLane="-E74_0" departPos="0.00" departSpeed="0.10" departDelay="0.00" arrival="731.00" arrivalLane="E86_0" arrivalPos="183.31" arrivalSpeed="5.96" duration="461.00" routeLength="1952.53" waitingTime="5.00" waitingCount="2" stopTime="85.00" timeLoss="50.34" rerouteNo="3" devices="tripinfo_vehicle_37" vType="DEFAULT_VEHTYPE@vehicle_37" speedFactor="1.18" vaporized=""/>
    <tripinfo id="vehicle_47" depart="370.00" departLane="-E54_0" departPos="0.00" departSpeed="0.10" departDelay="0.00" arrival="740.00" arrivalLane="E86_0" arrivalPos="183.31" arrivalSpeed="5.66" duration="370.00" routeLength="1314.43" waitingTime="0.00" waitingCount="0" stopTime="119.00" timeLoss="30.44" rerouteNo="2" devices="tripinfo_vehicle_47" vType="DEFAULT_VEHTYPE@vehicle_47" speedFactor="0.90" vaporized=""/>
    <tripinfo id="vehicle_33" depart="233.00" departLane="-E45_0" departPos="0.00" departSpeed="0.10" departDelay="3.00" arrival="745.00" arrivalLane="E86_0" arrivalPos="183.31" arrivalSpeed="5.37" duration="512.00" routeLength="1905.67" waitingTime="10.00" waitingCount="2" stopTime="129.00" timeLoss="64.67" rerouteNo="16" devices="tripinfo_vehicle_33" vType="DEFAULT_VEHTYPE@vehicle_33" speedFactor="1.17" vaporized=""/>
    <tripinfo id="vehicle_48" depart="380.00" departLane="-E34_0" departPos="0.00" departSpeed="0.10" departDelay="0.00" arrival="758.00" arrivalLane="E86_0" arrivalPos="183.31" arrivalSpeed="5.26" duration="378.00" routeLength="1008.42" waitingTime="1.00" waitingCount="1" stopTime="179.00" timeLoss="29.38" rerouteNo="2" devices="tripinfo_vehicle_48" vType="DEFAULT_VEHTYPE@vehicle_48" speedFactor="0.88" vaporized=""/>
    <tripinfo id="vehicle_65" depart="550.00" departLane="E67_0" departPos="0.00" departSpeed="0.10" departDelay="0.00" arrival="761.00" arrivalLane="E86_0" arrivalPos="183.31" arrivalSpeed="5.35" duration="211.00" routeLength="1108.17" waitingTime="0.00" waitingCount="0" stopTime="0.00" timeLoss="25.56" rerouteNo="8" devices="tripinfo_vehicle_65" vType="DEFAULT_VEHTYPE@vehicle_65" speedFactor="0.88" vaporized=""/>
    <tripinfo id="vehicle_60" depart="507.00" departLane="E45_0" departPos="0.00" departSpeed="0.10" departDelay="7.00" arrival="767.00" arrivalLane="E86_0" arrivalPos="183.31" arrivalSpeed="5.50" duration="260.00" routeLength="679.94" waitingTime="0.00" waitingCount="0" stopTime="129.00" timeLoss="17.14" rerouteNo="2" devices="tripinfo_vehicle_60" vType="DEFAULT_VEHTYPE@vehicle_60" speedFactor="1.08" vaporized=""/>
    <tripinfo id="vehicle_43" depart="330.00" departLane="-E53_0" departPos="0.00" departSpeed="0.10" departDelay="0.00" arrival="771.00" arrivalLane="E86_0" arrivalPos="183.31" arrivalSpeed="5.30" duration="441.00" routeLength="1458.77" waitingTime="5.00" waitingCount="1" stopTime="158.00" timeLoss="39.06" rerouteNo="4" devices="tripinfo_vehicle_43" vType="DEFAULT_VEHTYPE@vehicle_43" speedFactor="1.04" vaporized=""/>
    <tripinfo id="vehicle_32" depart="220.00" departLane="E54_0" departPos="0.00" departSpeed="0.10" departDelay="0.00" arrival="775.00" arrivalLane="E86_0" arrivalPos="183.31" arrivalSpeed="5.09" duration="555.00" routeLength="1971.17" waitingTime="5.00" waitingCount="2" stopTime="170.00" timeLoss="55.69" rerouteNo="2" devices="tripinfo_vehicle_32" vType="DEFAULT_VEHTYPE@vehicle_32" speedFactor="1.01" vaporized=""/>
    <tripinfo id="vehicle_45" depart="350.00" departLane="-E55_0" departPos="0.00" departSpeed="0.10" departDelay="0.00" arrival="778.00" arrivalLane="E86_0" arrivalPos="183.31" arrivalSpeed="5.02" duration="428.00" routeLength="1511.30" waitingTime="9.00" waitingCount="1" stopTime="128.00" timeLoss="48.03" rerouteNo="3" devices="tripinfo_vehicle_45" vType="DEFAULT_VEHTYPE@vehicle_45" speedFactor="1.09" vaporized=""/>
    <tripinfo id="vehicle_56" depart="460.00" departLane="E42_0" departPos="0.00" departSpeed="0.10" departDelay="0.00" arrival="782.00" arrivalLane="E86_0" arrivalPos="183.31" arrivalSpeed="5.84" duration="322.00" routeLength="907.43" waitingTime="3.00" waitingCount="2" stopTime="142.00" timeLoss="27.61" rerouteNo="2" devices="tripinfo_vehicle_56" vType="DEFAULT_VEHTYPE@vehicle_56" speedFactor="0.90" vaporized=""/>
    <tripinfo id="vehicle_44" depart="340.00" departLane="E82_0" departPos="0.00" departSpeed="0.10" departDelay="0.00" arrival="787.00" arrivalLane="E86_0" arrivalPos="183.31" arrivalSpeed="5.59" duration="447.00" routeLength="1556.20" waitingTime="16.00" waitingCount="1" stopTime="129.00" timeLoss="57.58" rerouteNo="8" devices="tripinfo_vehicle_44" vType="DEFAULT_VEHTYPE@vehicle_44" speedFactor="1.04" vaporized=""/>
    <tripinfo id="vehicle_51" depart="410.00" departLane="E73_0" departPos="0.00" departSpeed="0.10" departDelay="0.00" arrival="794.00" arrivalLane="E86_0" arrivalPos="183.31" arrivalSpeed="5.36" duration="384.00" routeLength="1159.13" waitingTime="0.00" waitingCount="0" stopTime="163.00" timeLoss="27.53" rerouteNo="3" devices="tripinfo_vehicle_51" vType="DEFAULT_VEHTYPE@vehicle_51" speedFactor="1.17" vaporized=""/>
    <tripinfo id="vehicle_28" depart="180.00" departLane="E69_0" departPos="0.00" departSpeed="0.10" departDelay="0.00" arrival="804.00" arrivalLane="E86_0" arrivalPos="183.31" arrivalSpeed="4.72" duration="624.00" routeLength="2382.42" waitingTime="0.00" waitingCount="0" stopTime="172.00" timeLoss="54.45" rerouteNo="7" devices="tripinfo_vehicle_28" vType="DEFAULT_VEHTYPE@vehicle_28" speedFactor="1.13" vaporized=""/>
    <tripinfo id="vehicle_53" depart="430.00" departLane="E12_0" departPos="0.00" departSpeed="0.10" departDelay="0.00" arrival="840.00" arrivalLane="E86_0" arrivalPos="183.31" arrivalSpeed="4.71" duration="410.00" routeLength="1701.90" waitingTime="0.00" waitingCount="0" stopTime="87.00" timeLoss="38.40" rerouteNo="2" devices="tripinfo_vehicle_53" vType="DEFAULT_VEHTYPE@vehicle_53" speedFactor="1.10" vaporized=""/>
    <tripinfo id="vehicle_63" depart="530.00" departLane="-E39_0" departPos="0.00" departSpeed="0.10" departDelay="0.00" arrival="842.00" arrivalLane="E86_0" arrivalPos="183.31" arrivalSpeed="5.73" duration="312.00" routeLength="1115.70" waitingTime="5.00" waitingCount="2" stopTime="92.00" timeLoss="33.80" rerouteNo="4" devices="tripinfo_vehicle_63" vType="DEFAULT_VEHTYPE@vehicle_63" speedFactor="0.99" vaporized=""/>
    <tripinfo id="vehicle_39" depart="290.00" departLane="-E43_0" departPos="0.00" departSpeed="0.10" departDelay="0.00" arrival="861.00" arrivalLane="E86_0" arrivalPos="183.31" arrivalSpeed="4.82" duration="571.00" routeLength="2194.77" waitingTime="0.00" waitingCount="0" stopTime="151.00" timeLoss="53.26" rerouteNo="5" devices="tripinfo_vehicle_39" vType="DEFAULT_VEHTYPE@vehicle_39" speedFactor="0.90" vaporized=""/>
    <tripinfo id="vehicle_61" depart="510.00" departLane="-E55_0" departPos="0.00" departSpeed="0.10" departDelay="0.00" arrival="864.00" arrivalLane="E86_0" arrivalPos="183.31" arrivalSpeed="4.83" duration="354.00" routeLength="976.64" waitingTime="0.00" waitingCount="0" stopTime="166.00" timeLoss="25.18" rerouteNo="2" devices="tripinfo_vehicle_61" vType="DEFAULT_VEHTYPE@vehicle_61" speedFactor="1.12" vaporized=""/>
    <tripinfo id="vehicle_78" depart="680.00" departLane="E65_0" departPos="0.00" departSpeed="0.10" departDelay="0.00" arrival="867.00" arrivalLane="-E40_0" arrivalPos="89.06" arrivalSpeed="5.97" duration="187.00" routeLength="985.79" waitingTime="0.00" waitingCount="0" stopTime="0.00" timeLoss="22.16" rerouteNo="1" devices="tripinfo_vehicle_78" vType="DEFAULT_VEHTYPE@vehicle_78" speedFactor="1.01" vaporized=""/>
    <tripinfo id="vehicle_55" depart="450.00" departLane="E82_0" departPos="0.00" departSpeed="0.10" departDelay="0.00" arrival="868.00" arrivalLane="E86_0" arrivalPos="183.31" arrivalSpeed="5.62" duration="418.00" routeLength="1513.50" waitingTime="0.00" waitingCount="0" stopTime="128.00" timeLoss="37.50" rerouteNo="9" devices="tripinfo_vehicle_55" vType="DEFAULT_VEHTYPE@vehicle_55" speedFactor="1.00" vaporized=""/>
    <tripinfo id="vehicle_69" depart="590.00" departLane="-E84_0" departPos="0.00" departSpeed="0.10" departDelay="0.00" arrival="873.00" arrivalLane="E86_0" arrivalPos="183.31" arrivalSpeed="5.33" duration="283.00" routeLength="884.10" waitingTime="0.00" waitingCount="0" stopTime="113.00" timeLoss="22.24" rerouteNo="2" devices="tripinfo_vehicle_69" vType="DEFAULT_VEHTYPE@vehicle_69" speedFactor="1.02" vaporized=""/>
    <tripinfo id="vehicle_40" depart="300.00" departLane="-E72_0" departPos="0.00" departSpeed="0.10" departDelay="0.00" arrival="876.00" arrivalLane="E86_0" arrivalPos="183.31" arrivalSpeed="4.90" duration="576.00" routeLength="2212.90" waitingTime="4.00" waitingCount="3" stopTime="148.00" timeLoss="58.70" rerouteNo="5" devices="tripinfo_vehicle_40" vType="DEFAULT_VEHTYPE@vehicle_40" speedFactor="1.03" vaporized=""/>
    <tripinfo id="vehicle_57" depart="470.00" departLane="E51_0" departPos="0.00" departSpeed="0.10" departDelay="0.00" arrival="889.00" arrivalLane="E86_0" arrivalPos="183.31" arrivalSpeed="5.19" duration="419.00" routeLength="1305.80" waitingTime="3.00" waitingCount="1" stopTime="158.00" timeLoss="43.13" rerouteNo="4" devices="tripinfo_vehicle_57" vType="DEFAULT_VEHTYPE@vehicle_57" speedFactor="1.14" vaporized=""/>
    <tripinfo id="vehicle_72" depart="620.00" departLane="-E72_0" departPos="0.00" departSpeed="0.10" departDelay="0.00" arrival="892.00" arrivalLane="E86_0" arrivalPos="183.31" arrivalSpeed="5.33" duration="272.00" routeLength="935.63" waitingTime="5.00" waitingCount="1" stopTime="84.00" timeLoss="31.66" rerouteNo="2" devices="tripinfo_vehicle_72" vType="DEFAULT_VEHTYPE@vehicle_72" speedFactor="0.94" vaporized=""/>
    <tripinfo id="vehicle_52" depart="420.00" departLane="-E83_0" departPos="0.00" departSpeed="0.10" departDelay="0.00" arrival="895.00" arrivalLane="E86_0" arrivalPos="183.31" arrivalSpeed="5.49" duration="475.00" routeLength="1882.15" waitingTime="9.00" waitingCount="3" stopTime="97.00" timeLoss="63.28" rerouteNo="2" devices="tripinfo_vehicle_52" vType="DEFAULT_VEHTYPE@vehicle_52" speedFactor="1.02" vaporized=""/>
    <tripinfo id="vehicle_54" depart="440.00" departLane="E31_0" departPos="0.00" departSpeed="0.10" departDelay="0.00" arrival="899.00" arrivalLane="E86_0" arrivalPos="183.31" arrivalSpeed="5.90" duration="459.00" routeLength="1537.74" waitingTime="15.00" waitingCount="1" stopTime="148.00" timeLoss="53.64" rerouteNo="11" devices="tripinfo_vehicle_54" vType="DEFAULT_VEHTYPE@vehicle_54" speedFactor="1.00" vaporized=""/>
    <tripinfo id="vehicle_66" depart="560.00" departLane="E54_0" departPos="0.00" departSpeed="0.10" departDelay="0.00" arrival="910.00" arrivalLane="E86_0" arrivalPos="183.31" arrivalSpeed="5.86" duration="350.00" routeLength="958.20" waitingTime="20.00" waitingCount="2" stopTime="137.00" timeLoss="53.16" rerouteNo="4" devices="tripinfo_vehicle_66" vType="DEFAULT_VEHTYPE@vehicle_66" speedFactor="0.91" vaporized=""/>
    <tripinfo id="vehicle_83" depart="730.00" departLane="E42_0" departPos="0.00" departSpeed="0.10" departDelay="0.00" arrival="923.00" arrivalLane="-E40_0" arrivalPos="89.06" arrivalSpeed="5.17" duration="193.00" routeLength="1015.63" waitingTime="0.00" waitingCount="0" stopTime="0.00" timeLoss="22.86" rerouteNo="3" devices="tripinfo_vehicle_83" vType="DEFAULT_VEHTYPE@vehicle_83" speedFactor="0.97" vaporized=""/>
    <tripinfo id="vehicle_68" depart="580.00" departLane="E76_0" departPos="0.00" departSpeed="0.10" departDelay="0.00" arrival="934.00" arrivalLane="E86_0" arrivalPos="183.31" arrivalSpeed="5.24" duration="354.00" routeLength="1074.97" waitingTime="6.00" waitingCount="1" stopTime="142.00" timeLoss="32.04" rerouteNo="2" devices="tripinfo_vehicle_68" vType="DEFAULT_VEHTYPE@vehicle_68" speedFactor="1.04" vaporized=""/>
    <tripinfo id="vehicle_49" depart="390.00" departLane="-E55_0" departPos="0.00" departSpeed="0.10" departDelay="0.00" arrival="948.00" arrivalLane="E86_0" arrivalPos="183.31" arrivalSpeed="5.35" duration="558.00" routeLength="2321.78" waitingTime="1.00" waitingCount="1" stopTime="114.00" timeLoss="55.47" rerouteNo="6" devices="tripinfo_vehicle_49" vType="DEFAULT_VEHTYPE@vehicle_49" speedFactor="0.85" vaporized=""/>
    <tripinfo id="vehicle_62" depart="520.00" departLane="-E84_0" departPos="0.00" departSpeed="0.10" departDelay="0.00" arrival="953.00" arrivalLane="E86_0" arrivalPos="183.31" arrivalSpeed="5.70" duration="433.00" routeLength="1753.68" waitingTime="4.00" waitingCount="1" stopTime="89.00" timeLoss="51.02" rerouteNo="4" devices="tripinfo_vehicle_62" vType="DEFAULT_VEHTYPE@vehicle_62" speedFactor="1.02" vaporized=""/>
    <tripinfo id="vehicle_75" depart="650.00" departLane="-E44_0" departPos="0.00" departSpeed="0.10" departDelay="0.00" arrival="956.00" arrivalLane="E86_0" arrivalPos="183.31" arrivalSpeed="5.37" duration="306.00" routeLength="1105.23" waitingTime="2.00" waitingCount="1" stopTime="87.00" timeLoss="33.40" rerouteNo="7" devices="tripinfo_vehicle_75" vType="DEFAULT_VEHTYPE@vehicle_75" speedFactor="0.98" vaporized=""/>
    <tripinfo id="vehicle_59" depart="490.00" departLane="E62_0" departPos="0.00" departSpeed="0.10" departDelay="0.00" arrival="961.00" arrivalLane="E86_0" arrivalPos="183.31" arrivalSpeed="5.12" duration="471.00" routeLength="1986.81" waitingTime="7.00" waitingCount="1" stopTime="85.00" timeLoss="54.43" rerouteNo="7" devices="tripinfo_vehicle_59" vType="DEFAULT_VEHTYPE@vehicle_59" speedFactor="0.97" vaporized=""/>